TITLE      =  Unstructured grid data
VARIABLES  =  "x0" "x1" "p" "u" "v" "T"
ZONE   T="P0 ZONE0 Quad", N=5151, E=5000, F=FEPOINT, ET=QUADRILATERAL, SOLUTIONTIME=0, AUXDATA CPU="0", AUXDATA TRS="InnerCells", AUXDATA Filename="bluntprobe-P0.plt", AUXDATA ElementType="Quad", AUXDATA Iter="0", AUXDATA PhysTime="0"
     -0.012700000000       0.000010000000 2000.000000000000 0.000000000000 0.000000000000 300.000000000000 
     -0.022225000000       0.000010000000 486.685640000000 2242.682820000000 0.000000000000 50.308800000000 
     -0.012700100000       0.000010000000 2000.000000000000 100.000000000000 0.000000000000 1700.000000000000 
     -0.012700209542       0.000010000000 2000.000000000000 100.000000000000 0.000000000000 1700.000000000000 
     -0.012700329540       0.000010000000 2000.000000000000 100.000000000000 -0.000000000000 1700.000000000000 
     -0.012700460988       0.000010000000 2000.000000000000 100.000000000000 0.000000000000 1700.000000000000 
     -0.012700604982       0.000010000000 2000.000000000000 100.000000000000 0.000000000000 1700.000000000000 
     -0.012700762717       0.000010000000 2000.000000000000 100.000000000000 0.000000000000 1700.000000000000 
     -0.012700935506       0.000010000000 2000.000000000000 100.000000000000 -0.000000000000 1700.000000000000 
     -0.012701124785       0.000010000000 2000.000000000000 100.000000000000 -0.000000000000 1700.000000000000 
     -0.012701332127       0.000010000000 2000.000000000000 100.000000000000 -0.000000000000 1700.000000000000 
     -0.012701559256       0.000010000000 2000.000000000000 100.000000000000 -0.000000000000 1700.000000000000 
     -0.012701808062       0.000010000000 2000.000000000000 100.000000000000 -0.000000000000 1700.000000000000 
     -0.012702080612       0.000010000000 2000.000000000000 100.000000000000 0.000000000000 1700.000000000000 
     -0.012702379172       0.000010000000 2000.000000000000 100.000000000000 0.000000000000 1700.000000000000 
     -0.012702706225       0.000010000000 2000.000000000000 100.000000000000 0.000000000000 1700.000000000000 
     -0.012703064490       0.000010000000 2000.000000000000 100.000000000000 -0.000000000000 1700.000000000000 
     -0.012703456946       0.000010000000 2000.000000000000 100.000000000000 -0.000000000000 1700.000000000000 
     -0.012703886856       0.000010000000 2000.000000000000 100.000000000000 0.000000000000 1700.000000000000 
     -0.012704357793       0.000010000000 2000.000000000000 100.000000000000 0.000000000000 1700.000000000000 
     -0.012704873674       0.000010000000 2000.000000000000 100.000000000000 0.000000000000 1700.000000000000 
     -0.012705438787       0.000010000000 2000.000000000000 100.000000000000 0.000000000000 1700.000000000000 
     -0.012706057831       0.000010000000 2000.000000000000 100.000000000000 0.000000000000 1700.000000000000 
     -0.012706735953       0.000010000000 2000.000000000000 100.000000000000 0.000000000000 1700.000000000000 
     -0.012707478791       0.000010000000 2000.000000000000 100.000000000000 0.000000000000 1700.000000000000 
     -0.012708292521       0.000010000000 2000.000000000000 100.000000000000 0.000000000000 1700.000000000000 
     -0.012709183907       0.000010000000 2000.000000000000 100.000000000000 0.000000000000 1700.000000000000 
     -0.012710160363       0.000010000000 2000.000000000000 100.000000000000 -0.000000000000 1700.000000000000 
     -0.012711230006       0.000010000000 2000.000000000000 100.000000000000 -0.000000000000 1700.000000000000 
     -0.012712401728       0.000010000000 2000.000000000000 100.000000000000 -0.000000000000 1700.000000000000 
     -0.012713685273       0.000010000000 2000.000000000000 100.000000000000 -0.000000000000 1700.000000000000 
     -0.012715091311       0.000010000000 2000.000000000000 100.000000000000 -0.000000000000 1700.000000000000 
     -0.012716631534       0.000010000000 2000.000000000000 100.000000000000 -0.000000000000 1700.000000000000 
     -0.012718318745       0.000010000000 2000.000000000000 100.000000000000 -0.000000000000 1700.000000000000 
     -0.012720166974       0.000010000000 2000.000000000000 100.000000000000 0.000000000000 1700.000000000000 
     -0.012722191586       0.000010000000 2000.000000000000 100.000000000000 -0.000000000000 1700.000000000000 
     -0.012724409415       0.000010000000 2000.000000000000 100.000000000000 -0.000000000000 1700.000000000000 
     -0.012726838900       0.000010000000 2000.000000000000 100.000000000000 -0.000000000000 1700.000000000000 
     -0.012729500240       0.000010000000 2000.000000000000 100.000000000000 -0.000000000000 1700.000000000000 
     -0.012732415562       0.000010000000 2000.000000000000 100.000000000000 -0.000000000000 1700.000000000000 
     -0.012735609105       0.000010000000 2000.000000000000 100.000000000000 0.000000000000 1700.000000000000 
     -0.012739107420       0.000010000000 2000.000000000000 100.000000000000 0.000000000000 1700.000000000000 
     -0.012742939592       0.000010000000 2000.000000000000 100.000000000000 0.000000000000 1700.000000000000 
     -0.012747137484       0.000010000000 2000.000000000000 100.000000000000 -0.000000000000 1700.000000000000 
     -0.012751735997       0.000010000000 2000.000000000000 100.000000000000 -0.000000000000 1700.000000000000 
     -0.012756773364       0.000010000000 2000.000000000000 100.000000000000 0.000000000000 1700.000000000000 
     -0.012762291466       0.000010000000 2000.000000000000 100.000000000000 -0.000000000000 1700.000000000000 
     -0.012768336183       0.000010000000 2000.000000000000 100.000000000000 0.000000000000 1700.000000000000 
     -0.012774957770       0.000010000000 2000.000000000000 100.000000000000 -0.000000000000 1700.000000000000 
     -0.012782211281       0.000010000000 2000.000000000000 100.000000000000 -0.000000000000 1700.000000000000 
     -0.012790157022       0.000010000000 2000.000000000000 100.000000000000 0.000000000000 1700.000000000000 
     -0.012798861057       0.000010000000 2000.000000000000 100.000000000000 0.000000000000 1700.000000000000 
     -0.012808395752       0.000010000000 2000.000000000000 100.000000000000 0.000000000000 1700.000000000000 
     -0.012818840379       0.000010000000 2000.000000000000 100.000000000000 0.000000000000 1700.000000000000 
     -0.012830281778       0.000010000000 2000.000000000000 100.000000000000 0.000000000000 1700.000000000000 
     -0.012842815074       0.000010000000 2000.000000000000 100.000000000000 0.000000000000 1700.000000000000 
     -0.012856544472       0.000010000000 2000.000000000000 100.000000000000 -0.000000000000 1700.000000000000 
     -0.012871584119       0.000010000000 2000.000000000000 100.000000000000 0.000000000000 1700.000000000000 
     -0.012888059058       0.000010000000 2000.000000000000 100.000000000000 0.000000000000 1700.000000000000 
     -0.012906106264       0.000010000000 2000.000000000000 100.000000000000 -0.000000000000 1700.000000000000 
     -0.012925875786       0.000010000000 2000.000000000000 100.000000000000 0.000000000000 1700.000000000000 
     -0.012947531990       0.000010000000 2000.000000000000 100.000000000000 0.000000000000 1700.000000000000 
     -0.012971254929       0.000010000000 2000.000000000000 100.000000000000 0.000000000000 1700.000000000000 
     -0.012997241841       0.000010000000 2000.000000000000 100.000000000000 0.000000000000 1700.000000000000 
     -0.013025708785       0.000010000000 2000.000000000000 100.000000000000 0.000000000000 1700.000000000000 
     -0.013056892440       0.000010000000 2000.000000000000 100.000000000000 0.000000000000 1700.000000000000 
     -0.013091052073       0.000010000000 2000.000000000000 100.000000000000 0.000000000000 1700.000000000000 
     -0.013128471692       0.000010000000 2000.000000000000 100.000000000000 0.000000000000 1700.000000000000 
     -0.013169462411       0.000010000000 2000.000000000000 100.000000000000 -0.000000000000 1700.000000000000 
     -0.013214365033       0.000010000000 2000.000000000000 100.000000000000 -0.000000000000 1700.000000000000 
     -0.013263552887       0.000010000000 2000.000000000000 100.000000000000 0.000000000000 1700.000000000000 
     -0.013317434930       0.000010000000 2000.000000000000 100.000000000000 0.000000000000 1700.000000000000 
     -0.013376459145       0.000010000000 2000.000000000000 100.000000000000 0.000000000000 1700.000000000000 
     -0.013441116270       0.000010000000 2000.000000000000 100.000000000000 0.000000000000 1700.000000000000 
     -0.013511943876       0.000010000000 2000.000000000000 100.000000000000 -0.000000000000 1700.000000000000 
     -0.013589530836       0.000010000000 2000.000000000000 100.000000000000 -0.000000000000 1700.000000000000 
     -0.013674522221       0.000010000000 2000.000000000000 100.000000000000 0.000000000000 1700.000000000000 
     -0.013767624665       0.000010000000 2000.000000000000 100.000000000000 0.000000000000 1700.000000000000 
     -0.013869612237       0.000010000000 2000.000000000000 100.000000000000 0.000000000000 1700.000000000000 
     -0.013981332879       0.000010000000 2000.000000000000 100.000000000000 0.000000000000 1700.000000000000 
     -0.014103715456       0.000010000000 2000.000000000000 100.000000000000 -0.000000000000 1700.000000000000 
     -0.014237777478       0.000010000000 2000.000000000000 100.000000000000 -0.000000000000 1700.000000000000 
     -0.014384633560       0.000010000000 2000.000000000000 100.000000000000 0.000000000000 1700.000000000000 
     -0.014545504689       0.000010000000 2000.000000000000 100.000000000000 0.000000000000 1700.000000000000 
     -0.014721728375       0.000010000000 2000.000000000000 100.000000000000 0.000000000000 1700.000000000000 
     -0.014914769773       0.000010000000 1254.053104953920 1156.176851878666 0.000000000000 886.829874247118 
     -0.015126233862       0.000010000000 486.685640000000 2242.682820000000 0.000000000000 50.308800000000 
     -0.015357878790       0.000010000000 486.685640000000 2242.682820000000 0.000000000000 50.308800000000 
     -0.015611630495       0.000010000000 486.685640000000 2242.682820000000 0.000000000000 50.308800000000 
     -0.015889598711       0.000010000000 486.685640000000 2242.682820000000 0.000000000000 50.308800000000 
     -0.016194094515       0.000010000000 486.685640000000 2242.682820000000 0.000000000000 50.308800000000 
     -0.016527649537       0.000010000000 486.685640000000 2242.682820000000 0.000000000000 50.308800000000 
     -0.016893037011       0.000010000000 486.685640000000 2242.682820000000 0.000000000000 50.308800000000 
     -0.017293294832       0.000010000000 486.685640000000 2242.682820000000 0.000000000000 50.308800000000 
     -0.017731750813       0.000010000000 486.685640000000 2242.682820000000 0.000000000000 50.308800000000 
     -0.018212050353       0.000010000000 486.685640000000 2242.682820000000 0.000000000000 50.308800000000 
     -0.018738186745       0.000010000000 486.685640000000 2242.682820000000 0.000000000000 50.308800000000 
     -0.019314534379       0.000010000000 486.685640000000 2242.682820000000 0.000000000000 50.308800000000 
     -0.019945885107       0.000010000000 486.685640000000 2242.682820000000 0.000000000000 50.308800000000 
     -0.020637488090       0.000010000000 486.685640000000 2242.682820000000 0.000000000000 50.308800000000 
     -0.021395093433       0.000010000000 486.685640000000 2242.682820000000 0.000000000000 50.308800000000 
      0.000000000000       0.012700000000 2000.000000000000 0.000000000000 0.000000000000 300.000000000000 
      0.000000000000       0.050810000000 590.928000000000 2445.400000000000 0.000000000000 67.011700000000 
      0.000000000000       0.012700099999 2000.000000000000 100.000000000000 10.000000000000 1700.000000000000 
      0.000000000000       0.012700211253 2000.000000000000 100.000000000000 10.000000000000 1700.000000000000 
      0.000000000000       0.012700335031 2000.000000000000 100.000000000000 10.000000000000 1700.000000000000 
      0.000000000000       0.012700472742 2000.000000000000 100.000000000000 10.000000000000 1700.000000000000 
      0.000000000000       0.012700625954 2000.000000000000 100.000000000000 10.000000000000 1700.000000000000 
      0.000000000000       0.012700796412 2000.000000000000 100.000000000000 10.000000000000 1700.000000000000 
      0.000000000000       0.012700986057 2000.000000000000 100.000000000000 10.000000000000 1700.000000000000 
      0.000000000000       0.012701197048 2000.000000000000 100.000000000000 10.000000000000 1700.000000000000 
      0.000000000000       0.012701431790 2000.000000000000 100.000000000000 10.000000000000 1700.000000000000 
      0.000000000000       0.012701692955 2000.000000000000 100.000000000000 10.000000000000 1700.000000000000 
      0.000000000000       0.012701983517 2000.000000000000 100.000000000000 10.000000000000 1700.000000000000 
      0.000000000000       0.012702306786 2000.000000000000 100.000000000000 10.000000000000 1700.000000000000 
      0.000000000000       0.012702666443 2000.000000000000 100.000000000000 10.000000000000 1700.000000000000 
      0.000000000000       0.012703066583 2000.000000000000 100.000000000000 10.000000000000 1700.000000000000 
      0.000000000000       0.012703511765 2000.000000000000 100.000000000000 10.000000000000 1700.000000000000 
      0.000000000000       0.012704007057 2000.000000000000 100.000000000000 10.000000000000 1700.000000000000 
      0.000000000000       0.012704558101 2000.000000000000 100.000000000000 10.000000000000 1700.000000000000 
      0.000000000000       0.012705171172 2000.000000000000 100.000000000000 10.000000000000 1700.000000000000 
      0.000000000000       0.012705853252 2000.000000000000 100.000000000000 10.000000000000 1700.000000000000 
      0.000000000000       0.012706612108 2000.000000000000 100.000000000000 10.000000000000 1700.000000000000 
      0.000000000000       0.012707456384 2000.000000000000 100.000000000000 10.000000000000 1700.000000000000 
      0.000000000000       0.012708395693 2000.000000000000 100.000000000000 10.000000000000 1700.000000000000 
      0.000000000000       0.012709440733 2000.000000000000 100.000000000000 10.000000000000 1700.000000000000 
      0.000000000000       0.012710603406 2000.000000000000 100.000000000000 10.000000000000 1700.000000000000 
      0.000000000000       0.012711896953 2000.000000000000 100.000000000000 10.000000000000 1700.000000000000 
      0.000000000000       0.012713336105 2000.000000000000 100.000000000000 10.000000000000 1700.000000000000 
      0.000000000000       0.012714937251 2000.000000000000 100.000000000000 10.000000000000 1700.000000000000 
      0.000000000000       0.012716718627 2000.000000000000 100.000000000000 10.000000000000 1700.000000000000 
      0.000000000000       0.012718700520 2000.000000000000 100.000000000000 10.000000000000 1700.000000000000 
      0.000000000000       0.012720905499 2000.000000000000 100.000000000000 10.000000000000 1700.000000000000 
      0.000000000000       0.012723358677 2000.000000000000 100.000000000000 10.000000000000 1700.000000000000 
      0.000000000000       0.012726087991 2000.000000000000 100.000000000000 10.000000000000 1700.000000000000 
      0.000000000000       0.012729124525 2000.000000000000 100.000000000000 10.000000000000 1700.000000000000 
      0.000000000000       0.012732502858 2000.000000000000 100.000000000000 10.000000000000 1700.000000000000 
      0.000000000000       0.012736261466 2000.000000000000 100.000000000000 10.000000000000 1700.000000000000 
      0.000000000000       0.012740443153 2000.000000000000 100.000000000000 10.000000000000 1700.000000000000 
      0.000000000000       0.012745095542 2000.000000000000 100.000000000000 10.000000000000 1700.000000000000 
      0.000000000000       0.012750271616 2000.000000000000 100.000000000000 10.000000000000 1700.000000000000 
      0.000000000000       0.012756030324 2000.000000000000 100.000000000000 10.000000000000 1700.000000000000 
      0.000000000000       0.012762437246 2000.000000000000 100.000000000000 10.000000000000 1700.000000000000 
      0.000000000000       0.012769565350 2000.000000000000 100.000000000000 10.000000000000 1700.000000000000 
      0.000000000000       0.012777495811 2000.000000000000 100.000000000000 10.000000000000 1700.000000000000 
      0.000000000000       0.012786318947 2000.000000000000 100.000000000000 10.000000000000 1700.000000000000 
      0.000000000000       0.012796135239 2000.000000000000 100.000000000000 10.000000000000 1700.000000000000 
      0.000000000000       0.012807056479 2000.000000000000 100.000000000000 10.000000000000 1700.000000000000 
      0.000000000000       0.012819207043 2000.000000000000 100.000000000000 10.000000000000 1700.000000000000 
      0.000000000000       0.012832725308 2000.000000000000 100.000000000000 10.000000000000 1700.000000000000 
      0.000000000000       0.012847765224 2000.000000000000 100.000000000000 10.000000000000 1700.000000000000 
      0.000000000000       0.012864498075 2000.000000000000 100.000000000000 10.000000000000 1700.000000000000 
      0.000000000000       0.012883114419 2000.000000000000 100.000000000000 10.000000000000 1700.000000000000 
      0.000000000000       0.012903826270 2000.000000000000 100.000000000000 10.000000000000 1700.000000000000 
      0.000000000000       0.012926869503 2000.000000000000 100.000000000000 10.000000000000 1700.000000000000 
      0.000000000000       0.012952506543 2000.000000000000 100.000000000000 10.000000000000 1700.000000000000 
      0.000000000000       0.012981029359 2000.000000000000 100.000000000000 10.000000000000 1700.000000000000 
      0.000000000000       0.013012762779 2000.000000000000 100.000000000000 10.000000000000 1700.000000000000 
      0.000000000000       0.013048068198 2000.000000000000 100.000000000000 10.000000000000 1700.000000000000 
      0.000000000000       0.013087347690 2000.000000000000 100.000000000000 10.000000000000 1700.000000000000 
      0.000000000000       0.013131048588 2000.000000000000 100.000000000000 10.000000000000 1700.000000000000 
      0.000000000000       0.013179668576 2000.000000000000 100.000000000000 10.000000000000 1700.000000000000 
      0.000000000000       0.013233761361 2000.000000000000 100.000000000000 10.000000000000 1700.000000000000 
      0.000000000000       0.013293942976 2000.000000000000 100.000000000000 10.000000000000 1700.000000000000 
      0.000000000000       0.013360898795 2000.000000000000 100.000000000000 10.000000000000 1700.000000000000 
      0.000000000000       0.013435391342 2000.000000000000 100.000000000000 10.000000000000 1700.000000000000 
      0.000000000000       0.013518268970 2000.000000000000 100.000000000000 10.000000000000 1700.000000000000 
      0.000000000000       0.013610475528 2000.000000000000 100.000000000000 10.000000000000 1700.000000000000 
      0.000000000000       0.013713061103 2000.000000000000 100.000000000000 10.000000000000 1700.000000000000 
      0.000000000000       0.013827193988 2000.000000000000 100.000000000000 10.000000000000 1700.000000000000 
      0.000000000000       0.013954173977 2000.000000000000 100.000000000000 10.000000000000 1700.000000000000 
      0.000000000000       0.014095447175 2000.000000000000 100.000000000000 10.000000000000 1700.000000000000 
      0.000000000000       0.014252622466 2000.000000000000 100.000000000000 10.000000000000 1700.000000000000 
      0.000000000000       0.014427489830 2000.000000000000 100.000000000000 10.000000000000 1700.000000000000 
      0.000000000000       0.014622040735 2000.000000000000 100.000000000000 10.000000000000 1700.000000000000 
      0.000000000000       0.014838490814 2000.000000000000 100.000000000000 10.000000000000 1700.000000000000 
      0.000000000000       0.015079305098 1212.495677314009 1215.017492396628 4.796161699767 841.527374988341 
      0.000000000000       0.015347226085 486.685640000000 2242.682820000000 0.000000000000 50.308800000000 
      0.000000000000       0.015645304980 486.685640000000 2242.682820000000 0.000000000000 50.308800000000 
      0.000000000000       0.015976936437 486.685640000000 2242.682820000000 0.000000000000 50.308800000000 
      0.000000000000       0.016345897225 486.685640000000 2242.682820000000 0.000000000000 50.308800000000 
      0.000000000000       0.016756389233 486.685640000000 2242.682820000000 0.000000000000 50.308800000000 
      0.000000000000       0.017213087326 486.685640000000 2242.682820000000 0.000000000000 50.308800000000 
      0.000000000000       0.017721192586 486.685640000000 2242.682820000000 0.000000000000 50.308800000000 
      0.000000000000       0.018286491543 486.685640000000 2242.682820000000 0.000000000000 50.308800000000 
      0.000000000000       0.018915422072 486.685640000000 2242.682820000000 0.000000000000 50.308800000000 
      0.000000000000       0.019615146716 486.685640000000 2242.682820000000 0.000000000000 50.308800000000 
      0.000000000000       0.020393634249 486.685640000000 2242.682820000000 0.000000000000 50.308800000000 
      0.000000000000       0.021259750435 486.685640000000 2242.682820000000 0.000000000000 50.308800000000 
      0.000000000000       0.022223358991 486.685640000000 2242.682820000000 0.000000000000 50.308800000000 
      0.000000000000       0.023295433921 486.685640000000 2242.682820000000 0.000000000000 50.308800000000 
      0.000000000000       0.024488184492 486.685640000000 2242.682820000000 0.000000000000 50.308800000000 
      0.000000000000       0.025815194279 486.685640000000 2242.682820000000 0.000000000000 50.308800000000 
      0.000000000000       0.027291575861 486.685640000000 2242.682820000000 0.000000000000 50.308800000000 
      0.000000000000       0.028934142929 486.685640000000 2242.682820000000 0.000000000000 50.308800000000 
      0.000000000000       0.030761601769 486.685640000000 2242.682820000000 0.000000000000 50.308800000000 
      0.000000000000       0.032794764296 486.685640000000 2242.682820000000 0.000000000000 50.308800000000 
      0.000000000000       0.035056785073 486.685640000000 2242.682820000000 0.000000000000 50.308800000000 
      0.000000000000       0.037573424999 486.685640000000 2242.682820000000 0.000000000000 50.308800000000 
      0.000000000000       0.040373344691 486.685640000000 2242.682820000000 0.000000000000 50.308800000000 
      0.000000000000       0.043488430883 486.685640000000 2242.682820000000 0.000000000000 50.308800000000 
      0.000000000000       0.046954159565 486.685640000000 2242.682820000000 0.000000000000 50.308800000000 
     -0.012693544051       0.000408579443 2000.000000000000 0.000000000000 0.000000000000 300.000000000000 
     -0.012674577726       0.000806825420 2000.000000000000 0.000000000000 0.000000000000 300.000000000000 
     -0.012643118039       0.001204295717 2000.000000000000 0.000000000000 0.000000000000 300.000000000000 
     -0.012599198931       0.001600561883 2000.000000000000 0.000000000000 0.000000000000 300.000000000000 
     -0.012542869389       0.001995208672 2000.000000000000 0.000000000000 0.000000000000 300.000000000000 
     -0.012474191778       0.002387833308 2000.000000000000 0.000000000000 0.000000000000 300.000000000000 
     -0.012393240385       0.002778044608 2000.000000000000 0.000000000000 0.000000000000 300.000000000000 
     -0.012300100195       0.003165462002 2000.000000000000 0.000000000000 0.000000000000 300.000000000000 
     -0.012194865900       0.003549714469 2000.000000000000 0.000000000000 0.000000000000 300.000000000000 
     -0.012077641137       0.003930439427 2000.000000000000 0.000000000000 0.000000000000 300.000000000000 
     -0.011948537969       0.004307281599 2000.000000000000 0.000000000000 0.000000000000 300.000000000000 
     -0.011807676585       0.004679891885 2000.000000000000 0.000000000000 0.000000000000 300.000000000000 
     -0.011655185228       0.005047926275 2000.000000000000 0.000000000000 0.000000000000 300.000000000000 
     -0.011491200387       0.005411044712 2000.000000000000 0.000000000000 0.000000000000 300.000000000000 
     -0.011315867106       0.005768910252 2000.000000000000 0.000000000000 0.000000000000 300.000000000000 
     -0.011129339597       0.006121188075 2000.000000000000 0.000000000000 0.000000000000 300.000000000000 
     -0.010931781996       0.006467544745 2000.000000000000 0.000000000000 0.000000000000 300.000000000000 
     -0.010723369323       0.006807647564 2000.000000000000 0.000000000000 0.000000000000 300.000000000000 
     -0.010504288599       0.007141164091 2000.000000000000 0.000000000000 0.000000000000 300.000000000000 
     -0.010274740135       0.007467761830 2000.000000000000 0.000000000000 0.000000000000 300.000000000000 
     -0.010034938950       0.007787108114 2000.000000000000 0.000000000000 0.000000000000 300.000000000000 
     -0.009785116320       0.008098870191 2000.000000000000 0.000000000000 0.000000000000 300.000000000000 
     -0.009525521419       0.008402715555 2000.000000000000 0.000000000000 0.000000000000 300.000000000000 
     -0.009256423040       0.008698312506 2000.000000000000 0.000000000000 0.000000000000 300.000000000000 
     -0.008978107622       0.008985334726 2000.000000000000 0.000000000000 0.000000000000 300.000000000000 
     -0.008690898493       0.009263444852 2000.000000000000 0.000000000000 0.000000000000 300.000000000000 
     -0.008395111767       0.009532340345 2000.000000000000 0.000000000000 0.000000000000 300.000000000000 
     -0.008091081548       0.009791726681 2000.000000000000 0.000000000000 0.000000000000 300.000000000000 
     -0.007779139858       0.010041334532 2000.000000000000 0.000000000000 0.000000000000 300.000000000000 
     -0.007459619543       0.010280914254 2000.000000000000 0.000000000000 0.000000000000 300.000000000000 
     -0.007132853693       0.010510234166 2000.000000000000 0.000000000000 0.000000000000 300.000000000000 
     -0.006799175321       0.010729078900 2000.000000000000 0.000000000000 0.000000000000 300.000000000000 
     -0.006458917260       0.010937247849 2000.000000000000 0.000000000000 0.000000000000 300.000000000000 
     -0.006112412279       0.011134553744 2000.000000000000 0.000000000000 0.000000000000 300.000000000000 
     -0.005759993390       0.011320821362 2000.000000000000 0.000000000000 0.000000000000 300.000000000000 
     -0.005401994331       0.011495886396 2000.000000000000 0.000000000000 0.000000000000 300.000000000000 
     -0.005038750202       0.011659594496 2000.000000000000 0.000000000000 0.000000000000 300.000000000000 
     -0.004670598210       0.011811800506 2000.000000000000 0.000000000000 0.000000000000 300.000000000000 
     -0.004297878657       0.011952367843 2000.000000000000 0.000000000000 0.000000000000 300.000000000000 
     -0.003920935777       0.012081168184 2000.000000000000 0.000000000000 0.000000000000 300.000000000000 
     -0.003540118878       0.012198081267 2000.000000000000 0.000000000000 0.000000000000 300.000000000000 
     -0.003155783427       0.012302994967 2000.000000000000 0.000000000000 0.000000000000 300.000000000000 
     -0.002768292184       0.012395805578 2000.000000000000 0.000000000000 0.000000000000 300.000000000000 
     -0.002378016334       0.012476418341 2000.000000000000 0.000000000000 0.000000000000 300.000000000000 
     -0.001985336609       0.012544748196 2000.000000000000 0.000000000000 0.000000000000 300.000000000000 
     -0.001590644346       0.012600720774 2000.000000000000 0.000000000000 0.000000000000 300.000000000000 
     -0.001194342479       0.012644273621 2000.000000000000 0.000000000000 0.000000000000 300.000000000000 
     -0.000796846418       0.012675357652 2000.000000000000 0.000000000000 0.000000000000 300.000000000000 
     -0.000398584789       0.012693938820 2000.000000000000 0.000000000000 0.000000000000 300.000000000000 
     -0.022222529914       0.001167975487 590.928000000000 2445.400000000000 0.000000000000 67.011700000000 
     -0.022218654585       0.002325983187 590.928000000000 2445.400000000001 0.000000000000 67.011700000000 
     -0.022211962766       0.003483887217 590.928000000000 2445.400000000000 0.000000000000 67.011700000000 
     -0.022201028517       0.004641807448 590.928000000000 2445.400000000000 0.000000000000 67.011700000000 
     -0.022184406587       0.005799660524 590.928000000000 2445.400000000000 0.000000000000 67.011700000000 
     -0.022160624877       0.006957389885 590.928000000000 2445.400000000000 0.000000000000 67.011700000000 
     -0.022128178388       0.008114910894 590.928000000000 2445.400000000001 0.000000000000 67.011700000000 
     -0.022085523303       0.009272103676 590.928000000000 2445.400000000001 0.000000000000 67.011700000000 
     -0.022031071584       0.010428805140 590.928000000000 2445.400000000000 0.000000000000 67.011700000000 
     -0.021963186291       0.011584800106 590.928000000000 2445.400000000000 0.000000000000 67.011700000000 
     -0.021880177909       0.012739811439 590.928000000000 2445.400000000001 0.000000000000 67.011700000000 
     -0.021780313303       0.013893369940 590.928000000000 2445.400000000001 0.000000000000 67.011700000000 
     -0.021661775844       0.015045246686 590.928000000000 2445.400000000000 0.000000000000 67.011700000000 
     -0.021522719042       0.016194823860 590.928000000000 2445.400000000001 0.000000000000 67.011700000000 
     -0.021361240118       0.017341463003 590.928000000000 2445.400000000000 0.000000000000 67.011700000000 
     -0.021175395279       0.018484401958 590.928000000000 2445.400000000001 0.000000000000 67.011700000000 
     -0.020963212364       0.019622740943 590.928000000000 2445.400000000001 0.000000000000 67.011700000000 