 TITLE="parade results"
 VARIABLES="wavelength [A]"
 "emission coefficient [W/m3/str/m]"
 "absorption coefficient [1/m]"
 "conditional distribution [-]"
 ZONE I=        10000 , F=POINT
  1.0000000000E+03  1.8462582916E+13  4.6302129695E+00  0.0000000000E+00
  1.0000875164E+03  1.8483452127E+13  4.6314287327E+00  1.0035396696E-06
  1.0001750481E+03  1.8504344644E+13  4.6326449216E+00  2.0083895945E-06
  1.0002625952E+03  1.8525260493E+13  4.6338615363E+00  3.0145513966E-06
  1.0003501576E+03  1.8546199699E+13  4.6350785771E+00  4.0220268662E-06
  1.0004377353E+03  1.8567162288E+13  4.6362960441E+00  5.0308176414E-06
  1.0005253283E+03  1.8588148287E+13  4.6375139375E+00  6.0409254887E-06
  1.0006129367E+03  1.8609157719E+13  4.6387322575E+00  7.0523521623E-06
  1.0007005604E+03  1.8630190613E+13  4.6399510043E+00  8.0650993196E-06
  1.0007881995E+03  1.8651246992E+13  4.6411701781E+00  9.0791687608E-06
  1.0008758540E+03  1.8672326884E+13  4.6423897791E+00  1.0094562147E-05
  1.0009635237E+03  1.8693430314E+13  4.6436098073E+00  1.1111281239E-05
  1.0010512089E+03  1.8714557307E+13  4.6448302632E+00  1.2129327687E-05
  1.0011389094E+03  1.8735707890E+13  4.6460511467E+00  1.3148703314E-05
  1.0012266253E+03  1.8756882089E+13  4.6472724582E+00  1.4169409800E-05
  1.0013143565E+03  1.8778079930E+13  4.6484941977E+00  1.5191448929E-05
  1.0014021032E+03  1.8799301439E+13  4.6497163656E+00  1.6214822414E-05
  1.0014898652E+03  1.8820546641E+13  4.6509389619E+00  1.7239532026E-05
  1.0015776426E+03  1.8841815564E+13  4.6521619869E+00  1.8265579485E-05
  1.0016654353E+03  1.8863108232E+13  4.6533854407E+00  1.9292966508E-05
  1.0017532435E+03  1.8884424673E+13  4.6546093236E+00  2.0321694915E-05
  1.0018410671E+03  1.8905764911E+13  4.6558336356E+00  2.1351766373E-05
  1.0019289060E+03  1.8927128975E+13  4.6570583771E+00  2.2383182691E-05
  1.0020167604E+03  1.8948516888E+13  4.6582835483E+00  2.3415945665E-05
  1.0021046302E+03  1.8969928679E+13  4.6595091491E+00  2.4450056996E-05
  1.0021925154E+03  1.8991364373E+13  4.6607351800E+00  2.5485518455E-05
  1.0022804160E+03  1.9012823997E+13  4.6619616411E+00  2.6522331774E-05
  1.0023683320E+03  1.9034307576E+13  4.6631885324E+00  2.7560498772E-05
  1.0024562635E+03  1.9055815138E+13  4.6644158544E+00  2.8600021198E-05
  1.0025442104E+03  1.9077346708E+13  4.6656436071E+00  2.9640900788E-05
  1.0026321727E+03  1.9098902313E+13  4.6668717907E+00  3.0683139282E-05
  1.0027201504E+03  1.9120481979E+13  4.6681004054E+00  3.1726738547E-05
  1.0028081436E+03  1.9142085734E+13  4.6693294514E+00  3.2771700381E-05
  1.0028961523E+03  1.9163713603E+13  4.6705589289E+00  3.3818026431E-05
  1.0029841763E+03  1.9185365612E+13  4.6717888380E+00  3.4865718555E-05
  1.0030722159E+03  1.9207041789E+13  4.6730191791E+00  3.5914778586E-05
  1.0031602709E+03  1.9228742161E+13  4.6742499522E+00  3.6965208259E-05
  1.0032483413E+03  1.9250466752E+13  4.6754811575E+00  3.8017009340E-05
  1.0033364273E+03  1.9272215592E+13  4.6767127953E+00  3.9070183666E-05
  1.0034245287E+03  1.9293988705E+13  4.6779448657E+00  4.0124732993E-05
  1.0035126455E+03  1.9315786119E+13  4.6791773690E+00  4.1180659134E-05
  1.0036007779E+03  1.9337607860E+13  4.6804103052E+00  4.2237963847E-05
  1.0036889257E+03  1.9359453955E+13  4.6816436746E+00  4.3296648964E-05
  1.0037770890E+03  1.9381324432E+13  4.6828774775E+00  4.4356716317E-05
  1.0038652678E+03  1.9403219316E+13  4.6841117139E+00  4.5418167755E-05
  1.0039534621E+03  1.9425138635E+13  4.6853463841E+00  4.6481004987E-05
  1.0040416719E+03  1.9447082415E+13  4.6865814882E+00  4.7545229782E-05
  1.0041298972E+03  1.9469050684E+13  4.6878170265E+00  4.8610844021E-05
  1.0042181380E+03  1.9491043468E+13  4.6890529991E+00  4.9677849533E-05
  1.0043063943E+03  1.9513060794E+13  4.6902894062E+00  5.0746248104E-05
  1.0043946661E+03  1.9535102690E+13  4.6915262481E+00  5.1816041538E-05
  1.0044829535E+03  1.9557169181E+13  4.6927635249E+00  5.2887231711E-05
  1.0045712563E+03  1.9579260297E+13  4.6940012368E+00  5.3959820500E-05
  1.0046595747E+03  1.9601376062E+13  4.6952393840E+00  5.5033809586E-05
  1.0047479087E+03  1.9623516505E+13  4.6964779667E+00  5.6109200850E-05
  1.0048362581E+03  1.9645681653E+13  4.6977169850E+00  5.7185996162E-05
  1.0049246231E+03  1.9667871533E+13  4.6989564393E+00  5.8264197307E-05
  1.0050130037E+03  1.9690086171E+13  4.7001963296E+00  5.9343806201E-05
  1.0051013997E+03  1.9712325596E+13  4.7014366561E+00  6.0424824547E-05
  1.0051898114E+03  1.9734589834E+13  4.7026774191E+00  6.1507254251E-05
  1.0052782386E+03  1.9756878914E+13  4.7039186187E+00  6.2591097246E-05
  1.0053666813E+03  1.9779192861E+13  4.7051602552E+00  6.3676355243E-05
  1.0054551396E+03  1.9801531704E+13  4.7064023287E+00  6.4763030139E-05
  1.0055436135E+03  1.9823895469E+13  4.7076448394E+00  6.5851123773E-05
  1.0056321030E+03  1.9846284185E+13  4.7088877875E+00  6.6940638017E-05
  1.0057206080E+03  1.9868697878E+13  4.7101311732E+00  6.8031574715E-05
  1.0058091286E+03  1.9891136576E+13  4.7113749967E+00  6.9123935759E-05
  1.0058976648E+03  1.9913600307E+13  4.7126192582E+00  7.0217722980E-05
  1.0059862166E+03  1.9936089098E+13  4.7138639578E+00  7.1312938216E-05
  1.0060747840E+03  1.9958602977E+13  4.7151090959E+00  7.2409583304E-05
  1.0061633670E+03  1.9981141971E+13  4.7163546724E+00  7.3507660197E-05
  1.0062519655E+03  2.0003706108E+13  4.7176006878E+00  7.4607170752E-05
  1.0063405797E+03  2.0026295415E+13  4.7188471421E+00  7.5708116798E-05
  1.0064292095E+03  2.0048909921E+13  4.7200940355E+00  7.6810500221E-05
  1.0065178549E+03  2.0071549652E+13  4.7213413683E+00  7.7914322885E-05
  1.0066065159E+03  2.0094214637E+13  4.7225891406E+00  7.9019586695E-05
  1.0066951925E+03  2.0116904903E+13  4.7238373526E+00  8.0126293600E-05
  1.0067838848E+03  2.0139620478E+13  4.7250860046E+00  8.1234445312E-05
  1.0068725927E+03  2.0162361391E+13  4.7263350967E+00  8.2344043883E-05
  1.0069613162E+03  2.0185127668E+13  4.7275846290E+00  8.3455091129E-05
  1.0070500554E+03  2.0207919337E+13  4.7288346019E+00  8.4567588921E-05
  1.0071388102E+03  2.0230736428E+13  4.7300850154E+00  8.5681539246E-05
  1.0072275806E+03  2.0253578966E+13  4.7313358699E+00  8.6796943940E-05
  1.0073163668E+03  2.0276446982E+13  4.7325871654E+00  8.7913804836E-05
  1.0074051685E+03  2.0299340501E+13  4.7338389022E+00  8.9032123901E-05
  1.0074939859E+03  2.0322259554E+13  4.7350910805E+00  9.0151903001E-05
  1.0075828190E+03  2.0345204166E+13  4.7363437004E+00  9.1273144092E-05
  1.0076716677E+03  2.0368174368E+13  4.7375967622E+00  9.2395849045E-05
  1.0077605322E+03  2.0391170186E+13  4.7388502661E+00  9.3520019875E-05
  1.0078494122E+03  2.0414191649E+13  4.7401042122E+00  9.4645658372E-05
  1.0079383080E+03  2.0437238785E+13  4.7413586007E+00  9.5772766540E-05
  1.0080272195E+03  2.0460311623E+13  4.7426134319E+00  9.6901346244E-05
  1.0081161466E+03  2.0483410190E+13  4.7438687059E+00  9.8031399351E-05
  1.0082050894E+03  2.0506534515E+13  4.7451244230E+00  9.9162927828E-05
  1.0082940479E+03  2.0529684626E+13  4.7463805833E+00  1.0029593362E-04
  1.0083830222E+03  2.0552860552E+13  4.7476371870E+00  1.0143041867E-04
  1.0084720121E+03  2.0576062320E+13  4.7488942343E+00  1.0256638493E-04
  1.0085610177E+03  2.0599289960E+13  4.7501517254E+00  1.0370383428E-04
  1.0086500391E+03  2.0622543499E+13  4.7514096606E+00  1.0484276868E-04
  1.0087390762E+03  2.0645822966E+13  4.7526680399E+00  1.0598319004E-04
  1.0088281289E+03  2.0669128390E+13  4.7539268637E+00  1.0712510034E-04
  1.0089171975E+03  2.0692459799E+13  4.7551861320E+00  1.0826850151E-04
  1.0090062817E+03  2.0715817221E+13  4.7564458452E+00  1.0941339543E-04
  1.0090953817E+03  2.0739200686E+13  4.7577060033E+00  1.1055978414E-04
  1.0091844974E+03  2.0762610222E+13  4.7589666066E+00  1.1170766959E-04
  1.0092736288E+03  2.0786045857E+13  4.7602276553E+00  1.1285705371E-04
  1.0093627760E+03  2.0809507620E+13  4.7614891496E+00  1.1400793843E-04
  1.0094519390E+03  2.0832995540E+13  4.7627510896E+00  1.1516032571E-04
  1.0095411177E+03  2.0856509646E+13  4.7640134757E+00  1.1631421752E-04
  1.0096303121E+03  2.0880049966E+13  4.7652763079E+00  1.1746961592E-04
  1.0097195224E+03  2.0903616529E+13  4.7665395864E+00  1.1862652273E-04
  1.0098087483E+03  2.0927209365E+13  4.7678033116E+00  1.1978494002E-04
  1.0098979901E+03  2.0950828501E+13  4.7690674834E+00  1.2094486977E-04
  1.0099872476E+03  2.0974473966E+13  4.7703321023E+00  1.2210631389E-04
  1.0100765209E+03  2.0998145791E+13  4.7715971683E+00  1.2326927434E-04
  1.0101658100E+03  2.1021844002E+13  4.7728626817E+00  1.2443375318E-04
  1.0102551149E+03  2.1045568631E+13  4.7741286426E+00  1.2559975231E-04
  1.0103444356E+03  2.1069319705E+13  4.7753950513E+00  1.2676727380E-04
  1.0104337721E+03  2.1093097253E+13  4.7766619079E+00  1.2793631957E-04
  1.0105231243E+03  2.1116901306E+13  4.7779292127E+00  1.2910689166E-04
  1.0106124924E+03  2.1140731891E+13  4.7791969658E+00  1.3027899201E-04
  1.0107018763E+03  2.1164589038E+13  4.7804651674E+00  1.3145262267E-04
  1.0107912760E+03  2.1188472776E+13  4.7817338178E+00  1.3262778556E-04
  1.0108806915E+03  2.1212383134E+13  4.7830029171E+00  1.3380448279E-04
  1.0109701228E+03  2.1236320142E+13  4.7842724656E+00  1.3498271629E-04
  1.0110595700E+03  2.1260283829E+13  4.7855424634E+00  1.3616248806E-04
  1.0111490330E+03  2.1284274224E+13  4.7868129108E+00  1.3734380010E-04
  1.0112385118E+03  2.1308291356E+13  4.7880838079E+00  1.3852665445E-04
  1.0113280065E+03  2.1332335255E+13  4.7893551549E+00  1.3971105317E-04
  1.0114175170E+03  2.1356405951E+13  4.7906269520E+00  1.4089699827E-04
  1.0115070433E+03  2.1380503472E+13  4.7918991995E+00  1.4208449167E-04
  1.0115965855E+03  2.1404627847E+13  4.7931718975E+00  1.4327353546E-04
  1.0116861436E+03  2.1428779108E+13  4.7944450462E+00  1.4446413167E-04
  1.0117757175E+03  2.1452957282E+13  4.7957186459E+00  1.4565628227E-04
  1.0118653073E+03  2.1477162400E+13  4.7969926967E+00  1.4684998935E-04
  1.0119549129E+03  2.1501394492E+13  4.7982671989E+00  1.4804525493E-04
  1.0120445344E+03  2.1525653586E+13  4.7995421525E+00  1.4924208098E-04
  1.0121341718E+03  2.1549939712E+13  4.8008175579E+00  1.5044046965E-04
  1.0122238251E+03  2.1574252901E+13  4.8020934152E+00  1.5164042290E-04
  1.0123134942E+03  2.1598593181E+13  4.8033697247E+00  1.5284194278E-04
  1.0124031793E+03  2.1622960583E+13  4.8046464865E+00  1.5404503141E-04
  1.0124928802E+03  2.1647355137E+13  4.8059237008E+00  1.5524969076E-04
  1.0125825970E+03  2.1671776871E+13  4.8072013678E+00  1.5645592285E-04
  1.0126723298E+03  2.1696225817E+13  4.8084794878E+00  1.5766372977E-04
  1.0127620784E+03  2.1720702003E+13  4.8097580609E+00  1.5887311358E-04
  1.0128518429E+03  2.1745205460E+13  4.8110370874E+00  1.6008407640E-04
  1.0129416234E+03  2.1769736218E+13  4.8123165674E+00  1.6129662021E-04
  1.0130314198E+03  2.1794294306E+13  4.8135965011E+00  1.6251074721E-04
  1.0131212321E+03  2.1818879755E+13  4.8148768887E+00  1.6372645931E-04
  1.0132110603E+03  2.1843492595E+13  4.8161577305E+00  1.6494375865E-04
  1.0133009045E+03  2.1868132855E+13  4.8174390266E+00  1.6616264727E-04
  1.0133907646E+03  2.1892800567E+13  4.8187207773E+00  1.6738312724E-04
  1.0134806406E+03  2.1917495759E+13  4.8200029827E+00  1.6860520068E-04
  1.0135705326E+03  2.1942218462E+13  4.8212856431E+00  1.6982886965E-04
  1.0136604405E+03  2.1966968707E+13  4.8225687586E+00  1.7105413623E-04
  1.0137503644E+03  2.1991746523E+13  4.8238523294E+00  1.7228100249E-04
  1.0138403042E+03  2.2016551941E+13  4.8251363558E+00  1.7350947049E-04
  1.0139302600E+03  2.2041384992E+13  4.8264208380E+00  1.7473954240E-04
  1.0140202317E+03  2.2066245704E+13  4.8277057761E+00  1.7597122024E-04
  1.0141102195E+03  2.2091134109E+13  4.8289911703E+00  1.7720450619E-04
  1.0142002231E+03  2.2116050238E+13  4.8302770210E+00  1.7843940231E-04
  1.0142902428E+03  2.2140994120E+13  4.8315633282E+00  1.7967591067E-04
  1.0143802785E+03  2.2165965786E+13  4.8328500921E+00  1.8091403338E-04
  1.0144703301E+03  2.2190965267E+13  4.8341373130E+00  1.8215377256E-04
  1.0145603977E+03  2.2215992592E+13  4.8354249911E+00  1.8339513036E-04
  1.0146504814E+03  2.2241047794E+13  4.8367131265E+00  1.8463810892E-04
  1.0147405810E+03  2.2266130901E+13  4.8380017196E+00  1.8588271021E-04
  1.0148306966E+03  2.2291241945E+13  4.8392907704E+00  1.8712893652E-04
  1.0149208283E+03  2.2316380957E+13  4.8405802792E+00  1.8837678988E-04
  1.0150109759E+03  2.2341547967E+13  4.8418702462E+00  1.8962627243E-04
  1.0151011396E+03  2.2366743006E+13  4.8431606715E+00  1.9087738627E-04
  1.0151913192E+03  2.2391966104E+13  4.8444515555E+00  1.9213013356E-04
  1.0152815150E+03  2.2417217292E+13  4.8457428982E+00  1.9338451646E-04
  1.0153717267E+03  2.2442496602E+13  4.8470347000E+00  1.9464053707E-04
  1.0154619545E+03  2.2467804064E+13  4.8483269609E+00  1.9589819746E-04
  1.0155521983E+03  2.2493139709E+13  4.8496196813E+00  1.9715749987E-04
  1.0156424581E+03  2.2518503568E+13  4.8509128613E+00  1.9841844638E-04
  1.0157327340E+03  2.2543895671E+13  4.8522065011E+00  1.9968103916E-04
  1.0158230259E+03  2.2569316050E+13  4.8535006009E+00  2.0094528042E-04
  1.0159133339E+03  2.2594764737E+13  4.8547951609E+00  2.0221117225E-04
  1.0160036580E+03  2.2620241760E+13  4.8560901814E+00  2.0347871681E-04
  1.0160939981E+03  2.2645747153E+13  4.8573856625E+00  2.0474791625E-04
  1.0161843543E+03  2.2671280946E+13  4.8586816045E+00  2.0601877277E-04
  1.0162747265E+03  2.2696843170E+13  4.8599780075E+00  2.0729128852E-04
  1.0163651149E+03  2.2722433857E+13  4.8612748717E+00  2.0856546564E-04
  1.0164555193E+03  2.2748053037E+13  4.8625721974E+00  2.0984130627E-04
  1.0165459398E+03  2.2773700742E+13  4.8638699848E+00  2.1111881267E-04
  1.0166363763E+03  2.2799377003E+13  4.8651682340E+00  2.1239798691E-04
  1.0167268290E+03  2.2825081851E+13  4.8664669453E+00  2.1367883122E-04
  1.0168172978E+03  2.2850815319E+13  4.8677661189E+00  2.1496134778E-04
  1.0169077827E+03  2.2876577436E+13  4.8690657549E+00  2.1624553883E-04
  1.0169982836E+03  2.2902368235E+13  4.8703658537E+00  2.1753140653E-04
  1.0170888007E+03  2.2928187747E+13  4.8716664153E+00  2.1881895301E-04
  1.0171793339E+03  2.2954036004E+13  4.8729674400E+00  2.2010818053E-04
  1.0172698833E+03  2.2979913037E+13  4.8742689281E+00  2.2139909127E-04
  1.0173604487E+03  2.3005818877E+13  4.8755708796E+00  2.2269168743E-04
  1.0174510303E+03  2.3031753557E+13  4.8768732949E+00  2.2398597118E-04
  1.0175416280E+03  2.3057717107E+13  4.8781761741E+00  2.2528194468E-04
  1.0176322418E+03  2.3083709560E+13  4.8794795174E+00  2.2657961017E-04
  1.0177228718E+03  2.3109730947E+13  4.8807833251E+00  2.2787896996E-04
  1.0178135179E+03  2.3135781300E+13  4.8820875973E+00  2.2918002616E-04
  1.0179041802E+03  2.3161860651E+13  4.8833923343E+00  2.3048278096E-04
  1.0179948586E+03  2.3187969031E+13  4.8846975362E+00  2.3178723667E-04
  1.0180855532E+03  2.3214106473E+13  4.8860032033E+00  2.3309339548E-04
  1.0181762639E+03  2.3240273007E+13  4.8873093357E+00  2.3440125960E-04
  1.0182669908E+03  2.3266468667E+13  4.8886159338E+00  2.3571083119E-04
  1.0183577339E+03  2.3292693484E+13  4.8899229976E+00  2.3702211265E-04
  1.0184484932E+03  2.3318947489E+13  4.8912305275E+00  2.3833510604E-04
  1.0185392686E+03  2.3345230716E+13  4.8925385235E+00  2.3964981363E-04
  1.0186300602E+03  2.3371543195E+13  4.8938469859E+00  2.4096623770E-04
  1.0187208680E+03  2.3397884960E+13  4.8951559150E+00  2.4228438053E-04
  1.0188116920E+03  2.3424256042E+13  4.8964653109E+00  2.4360424425E-04
  1.0189025322E+03  2.3450656473E+13  4.8977751738E+00  2.4492583115E-04
  1.0189933886E+03  2.3477086285E+13  4.8990855040E+00  2.4624914359E-04
  1.0190842612E+03  2.3503545511E+13  4.9003963016E+00  2.4757418369E-04
  1.0191751500E+03  2.3530034183E+13  4.9017075669E+00  2.4890095374E-04
  1.0192660550E+03  2.3556552334E+13  4.9030193001E+00  2.5022945598E-04
  1.0193569763E+03  2.3583099994E+13  4.9043315013E+00  2.5155969269E-04
  1.0194479137E+03  2.3609677198E+13  4.9056441708E+00  2.5289166622E-04
  1.0195388674E+03  2.3636283977E+13  4.9069573088E+00  2.5422537868E-04
  1.0196298374E+03  2.3662920363E+13  4.9082709155E+00  2.5556083248E-04
  1.0197208235E+03  2.3689586389E+13  4.9095849912E+00  2.5689802984E-04
  1.0198118259E+03  2.3716282088E+13  4.9108995359E+00  2.5823697299E-04
  1.0199028445E+03  2.3743007493E+13  4.9122145500E+00  2.5957766428E-04
  1.0199938794E+03  2.3769762634E+13  4.9135300336E+00  2.6092010599E-04
  1.0200849306E+03  2.3796547546E+13  4.9148459870E+00  2.6226430038E-04
  1.0201759980E+03  2.3823362261E+13  4.9161624104E+00  2.6361024969E-04
  1.0202670816E+03  2.3850206812E+13  4.9174793039E+00  2.6495795626E-04
  1.0203581815E+03  2.3877081230E+13  4.9187966678E+00  2.6630742240E-04
  1.0204492977E+03  2.3903985550E+13  4.9201145022E+00  2.6765865042E-04
  1.0205404302E+03  2.3930919803E+13  4.9214328075E+00  2.6901164261E-04
  1.0206315789E+03  2.3957884023E+13  4.9227515838E+00  2.7036640121E-04
  1.0207227440E+03  2.3984878242E+13  4.9240708313E+00  2.7172292858E-04
  1.0208139253E+03  2.4011902493E+13  4.9253905503E+00  2.7308122697E-04
  1.0209051229E+03  2.4038956809E+13  4.9267107409E+00  2.7444129874E-04
  1.0209963368E+03  2.4066041224E+13  4.9280314033E+00  2.7580314625E-04
  1.0210875670E+03  2.4093155769E+13  4.9293525378E+00  2.7716677179E-04
  1.0211788135E+03  2.4120300479E+13  4.9306741446E+00  2.7853217766E-04
  1.0212700763E+03  2.4147475386E+13  4.9319962239E+00  2.7989936616E-04
  1.0213613555E+03  2.4174680522E+13  4.9333187759E+00  2.8126833965E-04
  1.0214526509E+03  2.4201915923E+13  4.9346418007E+00  2.8263910048E-04
  1.0215439627E+03  2.4229181619E+13  4.9359652987E+00  2.8401165103E-04
  1.0216352908E+03  2.4256477645E+13  4.9372892701E+00  2.8538599347E-04
  1.0217266352E+03  2.4283804035E+13  4.9386137149E+00  2.8676213021E-04
  1.0218179960E+03  2.4311160820E+13  4.9399386336E+00  2.8814006363E-04
  1.0219093731E+03  2.4338548034E+13  4.9412640262E+00  2.8951979614E-04
  1.0220007666E+03  2.4365965712E+13  4.9425898929E+00  2.9090132998E-04
  1.0220921764E+03  2.4393413885E+13  4.9439162341E+00  2.9228466758E-04
  1.0221836025E+03  2.4420892589E+13  4.9452430499E+00  2.9366981120E-04
  1.0222750450E+03  2.4448401855E+13  4.9465703405E+00  2.9505676323E-04
  1.0223665039E+03  2.4475941717E+13  4.9478981061E+00  2.9644552607E-04
  1.0224579792E+03  2.4503512210E+13  4.9492263469E+00  2.9783610201E-04
  1.0225494708E+03  2.4531113366E+13  4.9505550632E+00  2.9922849351E-04
  1.0226409788E+03  2.4558745219E+13  4.9518842552E+00  3.0062270290E-04
  1.0227325031E+03  2.4586407803E+13  4.9532139230E+00  3.0201873254E-04
  1.0228240439E+03  2.4614101151E+13  4.9545440670E+00  3.0341658484E-04
  1.0229156010E+03  2.4641825298E+13  4.9558746872E+00  3.0481626219E-04
  1.0230071746E+03  2.4669580276E+13  4.9572057840E+00  3.0621776692E-04
  1.0230987645E+03  2.4697366120E+13  4.9585373575E+00  3.0762110148E-04
  1.0231903708E+03  2.4725182863E+13  4.9598694079E+00  3.0902626822E-04
  1.0232819936E+03  2.4753030539E+13  4.9612019355E+00  3.1043326953E-04
  1.0233736327E+03  2.4780909183E+13  4.9625349405E+00  3.1184210781E-04
  1.0234652883E+03  2.4808818827E+13  4.9638684230E+00  3.1325278542E-04
  1.0235569602E+03  2.4836759506E+13  4.9652023834E+00  3.1466530479E-04
  1.0236486486E+03  2.4864731255E+13  4.9665368217E+00  3.1607966836E-04
  1.0237403535E+03  2.4892734106E+13  4.9678717383E+00  3.1749587846E-04
  1.0238320747E+03  2.4920768094E+13  4.9692071333E+00  3.1891393754E-04
  1.0239238124E+03  2.4948833254E+13  4.9705430070E+00  3.2033384807E-04
  1.0240155666E+03  2.4976929618E+13  4.9718793596E+00  3.2175561234E-04
  1.0241073372E+03  2.5005057222E+13  4.9732161912E+00  3.2317923289E-04
  1.0241991242E+03  2.5033216100E+13  4.9745535022E+00  3.2460471209E-04
  1.0242909277E+03  2.5061406286E+13  4.9758912926E+00  3.2603205237E-04
  1.0243827477E+03  2.5089627813E+13  4.9772295628E+00  3.2746125628E-04
  1.0244745841E+03  2.5117880717E+13  4.9785683130E+00  3.2889232607E-04
  1.0245664370E+03  2.5146165032E+13  4.9799075433E+00  3.3032526423E-04
  1.0246583063E+03  2.5174480792E+13  4.9812472539E+00  3.3176007328E-04
  1.0247501922E+03  2.5202828032E+13  4.9825874452E+00  3.3319675564E-04
  1.0248420945E+03  2.5231206786E+13  4.9839281173E+00  3.3463531374E-04
  1.0249340133E+03  2.5259617088E+13  4.9852692703E+00  3.3607574986E-04
  1.0250259486E+03  2.5288058973E+13  4.9866109047E+00  3.3751806661E-04
  1.0251179003E+03  2.5316532476E+13  4.9879530204E+00  3.3896226655E-04
  1.0252098686E+03  2.5345037632E+13  4.9892956179E+00  3.4040835205E-04
  1.0253018534E+03  2.5373574474E+13  4.9906386972E+00  3.4185632552E-04
  1.0253938547E+03  2.5402143038E+13  4.9919822587E+00  3.4330618944E-04
  1.0254858725E+03  2.5430743358E+13  4.9933263024E+00  3.4475794628E-04
  1.0255779068E+03  2.5459375469E+13  4.9946708287E+00  3.4621159852E-04
  1.0256699577E+03  2.5488039407E+13  4.9960158377E+00  3.4766714861E-04
  1.0257620251E+03  2.5516735205E+13  4.9973613298E+00  3.4912459897E-04
  1.0258541090E+03  2.5545462898E+13  4.9987073049E+00  3.5058395220E-04
  1.0259462094E+03  2.5574222522E+13  5.0000537635E+00  3.5204521073E-04
  1.0260383264E+03  2.5603014112E+13  5.0014007057E+00  3.5350837715E-04
  1.0261304599E+03  2.5631837702E+13  5.0027481318E+00  3.5497345388E-04
  1.0262226099E+03  2.5660693327E+13  5.0040960419E+00  3.5644044337E-04
  1.0263147766E+03  2.5689581023E+13  5.0054444363E+00  3.5790934815E-04
  1.0264069597E+03  2.5718500825E+13  5.0067933151E+00  3.5938017069E-04
  1.0264991595E+03  2.5747452767E+13  5.0081426787E+00  3.6085291351E-04
  1.0265913758E+03  2.5776436886E+13  5.0094925272E+00  3.6232757921E-04
  1.0266836086E+03  2.5805453215E+13  5.0108428608E+00  3.6380417016E-04
  1.0267758581E+03  2.5834501791E+13  5.0121936798E+00  3.6528268886E-04
  1.0268681241E+03  2.5863582648E+13  5.0135449843E+00  3.6676313789E-04
  1.0269604067E+03  2.5892695823E+13  5.0148967747E+00  3.6824551978E-04
  1.0270527059E+03  2.5921841350E+13  5.0162490511E+00  3.6972983715E-04
  1.0271450217E+03  2.5951019264E+13  5.0176018137E+00  3.7121609236E-04
  1.0272373541E+03  2.5980229602E+13  5.0189550627E+00  3.7270428805E-04
  1.0273297031E+03  2.6009472398E+13  5.0203087984E+00  3.7419442668E-04
  1.0274220687E+03  2.6038747689E+13  5.0216630210E+00  3.7568651091E-04
  1.0275144509E+03  2.6068055509E+13  5.0230177308E+00  3.7718054312E-04
  1.0276068497E+03  2.6097395895E+13  5.0243729278E+00  3.7867652598E-04
  1.0276992651E+03  2.6126768882E+13  5.0257286124E+00  3.8017446193E-04
  1.0277916972E+03  2.6156174505E+13  5.0270847847E+00  3.8167435356E-04
  1.0278841459E+03  2.6185612800E+13  5.0284414451E+00  3.8317620351E-04
  1.0279766112E+03  2.6215083804E+13  5.0297985936E+00  3.8468001429E-04
  1.0280690932E+03  2.6244587551E+13  5.0311562306E+00  3.8618578840E-04
  1.0281615918E+03  2.6274124079E+13  5.0325143562E+00  3.8769352842E-04
  1.0282541070E+03  2.6303693421E+13  5.0338729706E+00  3.8920323692E-04
  1.0283466389E+03  2.6333295615E+13  5.0352320742E+00  3.9071491645E-04
  1.0284391875E+03  2.6362930697E+13  5.0365916670E+00  3.9222856953E-04
  1.0285317527E+03  2.6392598701E+13  5.0379517494E+00  3.9374419890E-04
  1.0286243345E+03  2.6422299665E+13  5.0393123215E+00  3.9526180702E-04
  1.0287169331E+03  2.6452033625E+13  5.0406733836E+00  3.9678139655E-04
  1.0288095483E+03  2.6481800616E+13  5.0420349359E+00  3.9830297006E-04
  1.0289021802E+03  2.6511600674E+13  5.0433969785E+00  3.9982653007E-04
  1.0289948288E+03  2.6541433836E+13  5.0447595118E+00  4.0135207931E-04
  1.0290874940E+03  2.6571300139E+13  5.0461225360E+00  4.0287962025E-04
  1.0291801760E+03  2.6601199617E+13  5.0474860512E+00  4.0440915556E-04
  1.0292728747E+03  2.6631132308E+13  5.0488500577E+00  4.0594068780E-04
  1.0293655900E+03  2.6661098248E+13  5.0502145557E+00  4.0747421960E-04
  1.0294583221E+03  2.6691097473E+13  5.0515795454E+00  4.0900975360E-04
  1.0295510708E+03  2.6721130020E+13  5.0529450271E+00  4.1054729227E-04
  1.0296438363E+03  2.6751195924E+13  5.0543110010E+00  4.1208683843E-04
  1.0297366185E+03  2.6781295223E+13  5.0556774672E+00  4.1362839460E-04
  1.0298294174E+03  2.6811427953E+13  5.0570444261E+00  4.1517196336E-04
  1.0299222331E+03  2.6841594151E+13  5.0584118778E+00  4.1671754740E-04
  1.0300150655E+03  2.6871793853E+13  5.0597798226E+00  4.1826514937E-04
  1.0301079146E+03  2.6902027096E+13  5.0611482607E+00  4.1981477185E-04
  1.0302007805E+03  2.6932293916E+13  5.0625171923E+00  4.2136641749E-04
  1.0302936631E+03  2.6962594350E+13  5.0638866176E+00  4.2292008901E-04
  1.0303865624E+03  2.6992928436E+13  5.0652565368E+00  4.2447578887E-04
  1.0304794785E+03  2.7023296209E+13  5.0666269502E+00  4.2603351981E-04
  1.0305724114E+03  2.7053697707E+13  5.0679978581E+00  4.2759328460E-04
  1.0306653610E+03  2.7084132966E+13  5.0693692605E+00  4.2915508579E-04
  1.0307583274E+03  2.7114602023E+13  5.0707411578E+00  4.3071892612E-04
  1.0308513106E+03  2.7145104916E+13  5.0721135502E+00  4.3228480807E-04
  1.0309443106E+03  2.7175641681E+13  5.0734864378E+00  4.3385273437E-04
  1.0310373273E+03  2.7206212356E+13  5.0748598210E+00  4.3542270787E-04
  1.0311303608E+03  2.7236816976E+13  5.0762336999E+00  4.3699473111E-04
  1.0312234111E+03  2.7267455581E+13  5.0776080747E+00  4.3856880669E-04
  1.0313164782E+03  2.7298128206E+13  5.0789829458E+00  4.4014493750E-04
  1.0314095621E+03  2.7328834889E+13  5.0803583132E+00  4.4172312601E-04
  1.0315026628E+03  2.7359575667E+13  5.0817341773E+00  4.4330337500E-04
  1.0315957804E+03  2.7390350577E+13  5.0831105382E+00  4.4488568701E-04
  1.0316889147E+03  2.7421159657E+13  5.0844873963E+00  4.4647006502E-04
  1.0317820658E+03  2.7452002944E+13  5.0858647516E+00  4.4805651156E-04
  1.0318752338E+03  2.7482880475E+13  5.0872426044E+00  4.4964502923E-04
  1.0319684186E+03  2.7513792289E+13  5.0886209551E+00  4.5123562085E-04
  1.0320616202E+03  2.7544738421E+13  5.0899998036E+00  4.5282828918E-04
  1.0321548387E+03  2.7575718910E+13  5.0913791504E+00  4.5442303693E-04
  1.0322480740E+03  2.7606733794E+13  5.0927589957E+00  4.5601986676E-04
  1.0323413262E+03  2.7637783110E+13  5.0941393395E+00  4.5761878151E-04
  1.0324345952E+03  2.7668866895E+13  5.0955201823E+00  4.5921978367E-04
  1.0325278810E+03  2.7699985187E+13  5.0969015242E+00  4.6082287612E-04
  1.0326211838E+03  2.7731138024E+13  5.0982833654E+00  4.6242806152E-04
  1.0327145033E+03  2.7762325445E+13  5.0996657061E+00  4.6403534266E-04
  1.0328078398E+03  2.7793547485E+13  5.1010485467E+00  4.6564472227E-04
  1.0329011931E+03  2.7824804184E+13  5.1024318872E+00  4.6725620303E-04
  1.0329945633E+03  2.7856095579E+13  5.1038157280E+00  4.6886978776E-04
  1.0330879504E+03  2.7887421708E+13  5.1052000692E+00  4.7048547914E-04
  1.0331813544E+03  2.7918782609E+13  5.1065849111E+00  4.7210328003E-04
  1.0332747752E+03  2.7950178321E+13  5.1079702540E+00  4.7372319300E-04
  1.0333682130E+03  2.7981608880E+13  5.1093560979E+00  4.7534522094E-04
  1.0334616677E+03  2.8013074326E+13  5.1107424433E+00  4.7696936660E-04
  1.0335551392E+03  2.8044574696E+13  5.1121292902E+00  4.7859563281E-04
  1.0336486277E+03  2.8076110028E+13  5.1135166390E+00  4.8022402225E-04
  1.0337421331E+03  2.8107680361E+13  5.1149044898E+00  4.8185453763E-04
  1.0338356554E+03  2.8139285733E+13  5.1162928428E+00  4.8348718174E-04
  1.0339291946E+03  2.8170926182E+13  5.1176816984E+00  4.8512195742E-04
  1.0340227508E+03  2.8202601747E+13  5.1190710567E+00  4.8675886744E-04
  1.0341163239E+03  2.8234312465E+13  5.1204609180E+00  4.8839791474E-04
  1.0342099139E+03  2.8266058376E+13  5.1218512824E+00  4.9003910188E-04
  1.0343035209E+03  2.8297839517E+13  5.1232421503E+00  4.9168243167E-04
  1.0343971448E+03  2.8329655927E+13  5.1246335218E+00  4.9332790693E-04
  1.0344907856E+03  2.8361507646E+13  5.1260253971E+00  4.9497553056E-04
  1.0345844435E+03  2.8393394710E+13  5.1274177766E+00  4.9662530530E-04
  1.0346781182E+03  2.8425317160E+13  5.1288106604E+00  4.9827723398E-04
  1.0347718100E+03  2.8457275033E+13  5.1302040487E+00  4.9993131950E-04
  1.0348655187E+03  2.8489268368E+13  5.1315979418E+00  5.0158756452E-04
  1.0349592444E+03  2.8521297204E+13  5.1329923399E+00  5.0324597187E-04
  1.0350529871E+03  2.8553361580E+13  5.1343872433E+00  5.0490654436E-04
  1.0351467467E+03  2.8585461534E+13  5.1357826521E+00  5.0656928497E-04
  1.0352405234E+03  2.8617597106E+13  5.1371785666E+00  5.0823419644E-04
  1.0353343170E+03  2.8649768335E+13  5.1385749870E+00  5.0990128151E-04
  1.0354281276E+03  2.8681975258E+13  5.1399719136E+00  5.1157054324E-04
  1.0355219553E+03  2.8714217916E+13  5.1413693466E+00  5.1324198421E-04
  1.0356157999E+03  2.8746496347E+13  5.1427672862E+00  5.1491560743E-04
  1.0357096615E+03  2.8778810590E+13  5.1441657326E+00  5.1659141573E-04
  1.0358035402E+03  2.8811160685E+13  5.1455646861E+00  5.1826941202E-04
  1.0358974359E+03  2.8843546670E+13  5.1469641469E+00  5.1994959907E-04
  1.0359913486E+03  2.8875968586E+13  5.1483641153E+00  5.2163197970E-04
  1.0360852783E+03  2.8908426470E+13  5.1497645914E+00  5.2331655683E-04
  1.0361792251E+03  2.8940920362E+13  5.1511655754E+00  5.2500333335E-04
  1.0362731889E+03  2.8973450302E+13  5.1525670678E+00  5.2669231217E-04
  1.0363671698E+03  2.9006016330E+13  5.1539690685E+00  5.2838349606E-04
  1.0364611677E+03  2.9038618483E+13  5.1553715780E+00  5.3007688794E-04
  1.0365551826E+03  2.9071256802E+13  5.1567745963E+00  5.3177249072E-04
  1.0366492147E+03  2.9103931327E+13  5.1581781238E+00  5.3347030724E-04
  1.0367432637E+03  2.9136642097E+13  5.1595821607E+00  5.3517034038E-04
  1.0368373299E+03  2.9169389151E+13  5.1609867072E+00  5.3687259316E-04
  1.0369314131E+03  2.9202172529E+13  5.1623917635E+00  5.3857706831E-04