 TITLE="parade results"
 VARIABLES="wavelength [A]"
 "emission coefficient [W/m3/str/m]"
 "absorption coefficient [1/m]"
 "conditional distribution [-]"
 ZONE I=         4000 , F=POINT
  1.0000000000E+03  1.0000000000E-10  1.0000000000E-10  0.0000000000E+00
  1.0002188526E+03  1.0000000000E-10  1.0000000000E-10  0.0000000000E+00
  1.0004378010E+03  1.0000000000E-10  1.0000000000E-10  0.0000000000E+00
  1.0006568453E+03  1.0000000000E-10  1.0000000000E-10  0.0000000000E+00
  1.0008759855E+03  1.0000000000E-10  1.0000000000E-10  0.0000000000E+00
  1.0010952217E+03  1.0000000000E-10  1.0000000000E-10  0.0000000000E+00
  1.0013145540E+03  1.0000000000E-10  1.0000000000E-10  0.0000000000E+00
  1.0015339824E+03  1.0000000000E-10  1.0000000000E-10  0.0000000000E+00
  1.0017535070E+03  1.0000000000E-10  1.0000000000E-10  0.0000000000E+00
  1.0019731279E+03  1.0000000000E-10  1.0000000000E-10  0.0000000000E+00
  1.0021928451E+03  1.0000000000E-10  1.0000000000E-10  0.0000000000E+00
  1.0024126586E+03  1.0000000000E-10  1.0000000000E-10  0.0000000000E+00
  1.0026325686E+03  1.0000000000E-10  1.0000000000E-10  0.0000000000E+00
  1.0028525752E+03  1.0000000000E-10  1.0000000000E-10  0.0000000000E+00
  1.0030726782E+03  1.0000000000E-10  1.0000000000E-10  0.0000000000E+00
  1.0032928780E+03  1.0000000000E-10  1.0000000000E-10  0.0000000000E+00
  1.0035131744E+03  1.0000000000E-10  1.0000000000E-10  0.0000000000E+00
  1.0037335676E+03  1.0000000000E-10  1.0000000000E-10  0.0000000000E+00
  1.0039540576E+03  1.0000000000E-10  1.0000000000E-10  0.0000000000E+00
  1.0041746445E+03  1.0000000000E-10  1.0000000000E-10  0.0000000000E+00
  1.0043953284E+03  1.0000000000E-10  1.0000000000E-10  0.0000000000E+00
  1.0046161093E+03  1.0000000000E-10  1.0000000000E-10  0.0000000000E+00
  1.0048369872E+03  1.0000000000E-10  1.0000000000E-10  0.0000000000E+00
  1.0050579624E+03  1.0000000000E-10  1.0000000000E-10  0.0000000000E+00
  1.0052790347E+03  1.0000000000E-10  1.0000000000E-10  0.0000000000E+00
  1.0055002043E+03  1.0000000000E-10  1.0000000000E-10  0.0000000000E+00
  1.0057214712E+03  1.0000000000E-10  1.0000000000E-10  0.0000000000E+00
  1.0059428356E+03  1.0000000000E-10  1.0000000000E-10  0.0000000000E+00
  1.0061642974E+03  1.0000000000E-10  1.0000000000E-10  0.0000000000E+00
  1.0063858567E+03  1.0000000000E-10  1.0000000000E-10  0.0000000000E+00
  1.0066075137E+03  1.0000000000E-10  1.0000000000E-10  0.0000000000E+00
  1.0068292683E+03  1.0000000000E-10  1.0000000000E-10  0.0000000000E+00
  1.0070511206E+03  1.0000000000E-10  1.0000000000E-10  0.0000000000E+00
  1.0072730707E+03  1.0000000000E-10  1.0000000000E-10  0.0000000000E+00
  1.0074951187E+03  1.0000000000E-10  1.0000000000E-10  0.0000000000E+00
  1.0077172646E+03  1.0000000000E-10  1.0000000000E-10  0.0000000000E+00
  1.0079395085E+03  1.0000000000E-10  1.0000000000E-10  0.0000000000E+00
  1.0081618504E+03  1.0000000000E-10  1.0000000000E-10  0.0000000000E+00
  1.0083842905E+03  1.0000000000E-10  1.0000000000E-10  0.0000000000E+00
  1.0086068287E+03  1.0000000000E-10  1.0000000000E-10  0.0000000000E+00
  1.0088294652E+03  1.0000000000E-10  1.0000000000E-10  0.0000000000E+00
  1.0090522000E+03  1.0000000000E-10  1.0000000000E-10  0.0000000000E+00
  1.0092750331E+03  1.0000000000E-10  1.0000000000E-10  0.0000000000E+00
  1.0094979647E+03  1.0000000000E-10  1.0000000000E-10  0.0000000000E+00
  1.0097209948E+03  1.0000000000E-10  1.0000000000E-10  0.0000000000E+00
  1.0099441235E+03  1.0000000000E-10  1.0000000000E-10  0.0000000000E+00
  1.0101673508E+03  1.0000000000E-10  1.0000000000E-10  0.0000000000E+00
  1.0103906768E+03  1.0000000000E-10  1.0000000000E-10  0.0000000000E+00
  1.0106141016E+03  1.0000000000E-10  1.0000000000E-10  0.0000000000E+00
  1.0108376252E+03  1.0000000000E-10  1.0000000000E-10  0.0000000000E+00
  1.0110612477E+03  1.0000000000E-10  1.0000000000E-10  0.0000000000E+00
  1.0112849692E+03  1.0000000000E-10  1.0000000000E-10  0.0000000000E+00
  1.0115087897E+03  1.0000000000E-10  1.0000000000E-10  0.0000000000E+00
  1.0117327093E+03  1.0000000000E-10  1.0000000000E-10  0.0000000000E+00
  1.0119567280E+03  1.0000000000E-10  1.0000000000E-10  0.0000000000E+00
  1.0121808460E+03  1.0000000000E-10  1.0000000000E-10  0.0000000000E+00
  1.0124050633E+03  1.0000000000E-10  1.0000000000E-10  0.0000000000E+00
  1.0126293799E+03  1.0000000000E-10  1.0000000000E-10  0.0000000000E+00
  1.0128537960E+03  1.0000000000E-10  1.0000000000E-10  0.0000000000E+00
  1.0130783115E+03  1.0000000000E-10  1.0000000000E-10  0.0000000000E+00
  1.0133029266E+03  1.0000000000E-10  1.0000000000E-10  0.0000000000E+00
  1.0135276414E+03  1.0000000000E-10  1.0000000000E-10  0.0000000000E+00
  1.0137524558E+03  1.0000000000E-10  1.0000000000E-10  0.0000000000E+00
  1.0139773700E+03  1.0000000000E-10  1.0000000000E-10  0.0000000000E+00
  1.0142023840E+03  1.0000000000E-10  1.0000000000E-10  0.0000000000E+00
  1.0144274979E+03  1.0000000000E-10  1.0000000000E-10  0.0000000000E+00
  1.0146527117E+03  1.0000000000E-10  1.0000000000E-10  0.0000000000E+00
  1.0148780256E+03  1.0000000000E-10  1.0000000000E-10  0.0000000000E+00
  1.0151034395E+03  1.0000000000E-10  1.0000000000E-10  0.0000000000E+00
  1.0153289536E+03  1.0000000000E-10  1.0000000000E-10  0.0000000000E+00
  1.0155545680E+03  1.0000000000E-10  1.0000000000E-10  0.0000000000E+00
  1.0157802826E+03  1.0000000000E-10  1.0000000000E-10  0.0000000000E+00
  1.0160060976E+03  1.0000000000E-10  1.0000000000E-10  0.0000000000E+00
  1.0162320130E+03  1.0000000000E-10  1.0000000000E-10  0.0000000000E+00
  1.0164580288E+03  1.0000000000E-10  1.0000000000E-10  0.0000000000E+00
  1.0166841453E+03  1.0000000000E-10  1.0000000000E-10  0.0000000000E+00
  1.0169103624E+03  1.0000000000E-10  1.0000000000E-10  0.0000000000E+00
  1.0171366801E+03  1.0000000000E-10  1.0000000000E-10  0.0000000000E+00
  1.0173630986E+03  1.0000000000E-10  1.0000000000E-10  0.0000000000E+00
  1.0175896180E+03  1.0000000000E-10  1.0000000000E-10  0.0000000000E+00
  1.0178162382E+03  1.0000000000E-10  1.0000000000E-10  0.0000000000E+00
  1.0180429594E+03  1.0000000000E-10  1.0000000000E-10  0.0000000000E+00
  1.0182697817E+03  1.0000000000E-10  1.0000000000E-10  0.0000000000E+00
  1.0184967050E+03  1.0000000000E-10  1.0000000000E-10  0.0000000000E+00
  1.0187237295E+03  1.0000000000E-10  1.0000000000E-10  0.0000000000E+00
  1.0189508552E+03  1.0000000000E-10  1.0000000000E-10  0.0000000000E+00
  1.0191780822E+03  1.0000000000E-10  1.0000000000E-10  0.0000000000E+00
  1.0194054106E+03  1.0000000000E-10  1.0000000000E-10  0.0000000000E+00
  1.0196328404E+03  1.0000000000E-10  1.0000000000E-10  0.0000000000E+00
  1.0198603717E+03  1.0000000000E-10  1.0000000000E-10  0.0000000000E+00
  1.0200880046E+03  1.0000000000E-10  1.0000000000E-10  0.0000000000E+00
  1.0203157391E+03  1.0000000000E-10  1.0000000000E-10  0.0000000000E+00
  1.0205435753E+03  1.0000000000E-10  1.0000000000E-10  0.0000000000E+00
  1.0207715134E+03  1.0000000000E-10  1.0000000000E-10  0.0000000000E+00
  1.0209995532E+03  1.0000000000E-10  1.0000000000E-10  0.0000000000E+00
  1.0212276950E+03  1.0000000000E-10  1.0000000000E-10  0.0000000000E+00
  1.0214559387E+03  1.0000000000E-10  1.0000000000E-10  0.0000000000E+00
  1.0216842845E+03  1.0000000000E-10  1.0000000000E-10  0.0000000000E+00
  1.0219127324E+03  1.0000000000E-10  1.0000000000E-10  0.0000000000E+00
  1.0221412825E+03  1.0000000000E-10  1.0000000000E-10  0.0000000000E+00
  1.0223699348E+03  1.0000000000E-10  1.0000000000E-10  0.0000000000E+00
  1.0225986895E+03  1.0000000000E-10  1.0000000000E-10  0.0000000000E+00
  1.0228275465E+03  1.0000000000E-10  1.0000000000E-10  0.0000000000E+00
  1.0230565060E+03  1.0000000000E-10  1.0000000000E-10  0.0000000000E+00
  1.0232855681E+03  1.0000000000E-10  1.0000000000E-10  0.0000000000E+00
  1.0235147327E+03  1.0000000000E-10  1.0000000000E-10  0.0000000000E+00
  1.0237440000E+03  1.0000000000E-10  1.0000000000E-10  0.0000000000E+00
  1.0239733700E+03  1.0000000000E-10  1.0000000000E-10  0.0000000000E+00
  1.0242028429E+03  1.0000000000E-10  1.0000000000E-10  0.0000000000E+00
  1.0244324186E+03  1.0000000000E-10  1.0000000000E-10  0.0000000000E+00
  1.0246620972E+03  1.0000000000E-10  1.0000000000E-10  0.0000000000E+00
  1.0248918789E+03  1.0000000000E-10  1.0000000000E-10  0.0000000000E+00
  1.0251217637E+03  1.0000000000E-10  1.0000000000E-10  0.0000000000E+00
  1.0253517515E+03  1.0000000000E-10  1.0000000000E-10  0.0000000000E+00
  1.0255818427E+03  1.0000000000E-10  1.0000000000E-10  0.0000000000E+00
  1.0258120371E+03  1.0000000000E-10  1.0000000000E-10  0.0000000000E+00
  1.0260423348E+03  1.0000000000E-10  1.0000000000E-10  0.0000000000E+00
  1.0262727360E+03  1.0000000000E-10  1.0000000000E-10  0.0000000000E+00
  1.0265032407E+03  1.0000000000E-10  1.0000000000E-10  0.0000000000E+00
  1.0267338490E+03  1.0000000000E-10  1.0000000000E-10  0.0000000000E+00
  1.0269645609E+03  1.0000000000E-10  1.0000000000E-10  0.0000000000E+00
  1.0271953765E+03  1.0000000000E-10  1.0000000000E-10  0.0000000000E+00
  1.0274262958E+03  1.0000000000E-10  1.0000000000E-10  0.0000000000E+00
  1.0276573191E+03  1.0000000000E-10  1.0000000000E-10  0.0000000000E+00
  1.0278884462E+03  1.0000000000E-10  1.0000000000E-10  0.0000000000E+00
  1.0281196773E+03  1.0000000000E-10  1.0000000000E-10  0.0000000000E+00
  1.0283510125E+03  1.0000000000E-10  1.0000000000E-10  0.0000000000E+00
  1.0285824519E+03  1.0000000000E-10  1.0000000000E-10  0.0000000000E+00
  1.0288139954E+03  1.0000000000E-10  1.0000000000E-10  0.0000000000E+00
  1.0290456432E+03  1.0000000000E-10  1.0000000000E-10  0.0000000000E+00
  1.0292773953E+03  1.0000000000E-10  1.0000000000E-10  0.0000000000E+00
  1.0295092518E+03  1.0000000000E-10  1.0000000000E-10  0.0000000000E+00
  1.0297412128E+03  1.0000000000E-10  1.0000000000E-10  0.0000000000E+00
  1.0299732784E+03  1.0000000000E-10  1.0000000000E-10  0.0000000000E+00
  1.0302054486E+03  1.0000000000E-10  1.0000000000E-10  0.0000000000E+00
  1.0304377235E+03  1.0000000000E-10  1.0000000000E-10  0.0000000000E+00
  1.0306701031E+03  1.0000000000E-10  1.0000000000E-10  0.0000000000E+00
  1.0309025876E+03  1.0000000000E-10  1.0000000000E-10  0.0000000000E+00
  1.0311351769E+03  1.0000000000E-10  1.0000000000E-10  0.0000000000E+00
  1.0313678713E+03  1.0000000000E-10  1.0000000000E-10  0.0000000000E+00
  1.0316006707E+03  1.0000000000E-10  1.0000000000E-10  0.0000000000E+00
  1.0318335752E+03  1.0000000000E-10  1.0000000000E-10  0.0000000000E+00
  1.0320665849E+03  1.0000000000E-10  1.0000000000E-10  0.0000000000E+00
  1.0322996999E+03  1.0000000000E-10  1.0000000000E-10  0.0000000000E+00
  1.0325329202E+03  1.0000000000E-10  1.0000000000E-10  0.0000000000E+00
  1.0327662459E+03  1.0000000000E-10  1.0000000000E-10  0.0000000000E+00
  1.0329996771E+03  1.0000000000E-10  1.0000000000E-10  0.0000000000E+00
  1.0332332138E+03  1.0000000000E-10  1.0000000000E-10  0.0000000000E+00
  1.0334668562E+03  1.0000000000E-10  1.0000000000E-10  0.0000000000E+00
  1.0337006042E+03  1.0000000000E-10  1.0000000000E-10  0.0000000000E+00
  1.0339344580E+03  1.0000000000E-10  1.0000000000E-10  0.0000000000E+00
  1.0341684176E+03  1.0000000000E-10  1.0000000000E-10  0.0000000000E+00
  1.0344024832E+03  1.0000000000E-10  1.0000000000E-10  0.0000000000E+00
  1.0346366547E+03  1.0000000000E-10  1.0000000000E-10  0.0000000000E+00
  1.0348709323E+03  1.0000000000E-10  1.0000000000E-10  0.0000000000E+00
  1.0351053159E+03  1.0000000000E-10  1.0000000000E-10  0.0000000000E+00
  1.0353398058E+03  1.0000000000E-10  1.0000000000E-10  0.0000000000E+00
  1.0355744020E+03  1.0000000000E-10  1.0000000000E-10  0.0000000000E+00
  1.0358091044E+03  1.0000000000E-10  1.0000000000E-10  0.0000000000E+00
  1.0360439133E+03  1.0000000000E-10  1.0000000000E-10  0.0000000000E+00
  1.0362788287E+03  1.0000000000E-10  1.0000000000E-10  0.0000000000E+00
  1.0365138506E+03  1.0000000000E-10  1.0000000000E-10  0.0000000000E+00
  1.0367489792E+03  1.0000000000E-10  1.0000000000E-10  0.0000000000E+00
  1.0369842145E+03  1.0000000000E-10  1.0000000000E-10  0.0000000000E+00
  1.0372195565E+03  1.0000000000E-10  1.0000000000E-10  0.0000000000E+00
  1.0374550054E+03  1.0000000000E-10  1.0000000000E-10  0.0000000000E+00
  1.0376905611E+03  1.0000000000E-10  1.0000000000E-10  0.0000000000E+00
  1.0379262239E+03  1.0000000000E-10  1.0000000000E-10  0.0000000000E+00
  1.0381619938E+03  1.0000000000E-10  1.0000000000E-10  0.0000000000E+00
  1.0383978708E+03  1.0000000000E-10  1.0000000000E-10  0.0000000000E+00
  1.0386338549E+03  1.0000000000E-10  1.0000000000E-10  0.0000000000E+00
  1.0388699464E+03  1.0000000000E-10  1.0000000000E-10  0.0000000000E+00
  1.0391061453E+03  1.0000000000E-10  1.0000000000E-10  0.0000000000E+00
  1.0393424515E+03  1.0000000000E-10  1.0000000000E-10  0.0000000000E+00
  1.0395788653E+03  1.0000000000E-10  1.0000000000E-10  0.0000000000E+00
  1.0398153866E+03  1.0000000000E-10  1.0000000000E-10  0.0000000000E+00
  1.0400520156E+03  1.0000000000E-10  1.0000000000E-10  0.0000000000E+00
  1.0402887523E+03  1.0000000000E-10  1.0000000000E-10  0.0000000000E+00
  1.0405255968E+03  1.0000000000E-10  1.0000000000E-10  0.0000000000E+00
  1.0407625492E+03  1.0000000000E-10  1.0000000000E-10  0.0000000000E+00
  1.0409996095E+03  1.0000000000E-10  1.0000000000E-10  0.0000000000E+00
  1.0412367779E+03  1.0000000000E-10  1.0000000000E-10  0.0000000000E+00
  1.0414740543E+03  1.0000000000E-10  1.0000000000E-10  0.0000000000E+00
  1.0417114389E+03  1.0000000000E-10  1.0000000000E-10  0.0000000000E+00
  1.0419489317E+03  1.0000000000E-10  1.0000000000E-10  0.0000000000E+00
  1.0421865329E+03  1.0000000000E-10  1.0000000000E-10  0.0000000000E+00
  1.0424242424E+03  1.0000000000E-10  1.0000000000E-10  0.0000000000E+00
  1.0426620604E+03  1.0000000000E-10  1.0000000000E-10  0.0000000000E+00
  1.0428999870E+03  1.0000000000E-10  1.0000000000E-10  0.0000000000E+00
  1.0431380221E+03  1.0000000000E-10  1.0000000000E-10  0.0000000000E+00
  1.0433761659E+03  1.0000000000E-10  1.0000000000E-10  0.0000000000E+00
  1.0436144185E+03  1.0000000000E-10  1.0000000000E-10  0.0000000000E+00
  1.0438527800E+03  1.0000000000E-10  1.0000000000E-10  0.0000000000E+00
  1.0440912503E+03  1.0000000000E-10  1.0000000000E-10  0.0000000000E+00
  1.0443298296E+03  1.0000000000E-10  1.0000000000E-10  0.0000000000E+00
  1.0445685180E+03  1.0000000000E-10  1.0000000000E-10  0.0000000000E+00
  1.0448073155E+03  1.0000000000E-10  1.0000000000E-10  0.0000000000E+00
  1.0450462222E+03  1.0000000000E-10  1.0000000000E-10  0.0000000000E+00
  1.0452852382E+03  1.0000000000E-10  1.0000000000E-10  0.0000000000E+00
  1.0455243635E+03  1.0000000000E-10  1.0000000000E-10  0.0000000000E+00
  1.0457635983E+03  1.0000000000E-10  1.0000000000E-10  0.0000000000E+00
  1.0460029426E+03  1.0000000000E-10  1.0000000000E-10  0.0000000000E+00
  1.0462423965E+03  1.0000000000E-10  1.0000000000E-10  0.0000000000E+00
  1.0464819600E+03  1.0000000000E-10  1.0000000000E-10  0.0000000000E+00
  1.0467216333E+03  1.0000000000E-10  1.0000000000E-10  0.0000000000E+00
  1.0469614164E+03  1.0000000000E-10  1.0000000000E-10  0.0000000000E+00
  1.0472013093E+03  1.0000000000E-10  1.0000000000E-10  0.0000000000E+00
  1.0474413122E+03  1.0000000000E-10  1.0000000000E-10  0.0000000000E+00
  1.0476814252E+03  1.0000000000E-10  1.0000000000E-10  0.0000000000E+00
  1.0479216483E+03  1.0000000000E-10  1.0000000000E-10  0.0000000000E+00
  1.0481619815E+03  1.0000000000E-10  1.0000000000E-10  0.0000000000E+00
  1.0484024250E+03  1.0000000000E-10  1.0000000000E-10  0.0000000000E+00
  1.0486429789E+03  1.0000000000E-10  1.0000000000E-10  0.0000000000E+00
  1.0488836432E+03  1.0000000000E-10  1.0000000000E-10  0.0000000000E+00
  1.0491244179E+03  1.0000000000E-10  1.0000000000E-10  0.0000000000E+00
  1.0493653032E+03  1.0000000000E-10  1.0000000000E-10  0.0000000000E+00
  1.0496062992E+03  1.0000000000E-10  1.0000000000E-10  0.0000000000E+00
  1.0498474059E+03  1.0000000000E-10  1.0000000000E-10  0.0000000000E+00
  1.0500886234E+03  1.0000000000E-10  1.0000000000E-10  0.0000000000E+00
  1.0503299517E+03  1.0000000000E-10  1.0000000000E-10  0.0000000000E+00
  1.0505713910E+03  1.0000000000E-10  1.0000000000E-10  0.0000000000E+00
  1.0508129414E+03  1.0000000000E-10  1.0000000000E-10  0.0000000000E+00
  1.0510546028E+03  1.0000000000E-10  1.0000000000E-10  0.0000000000E+00
  1.0512963754E+03  1.0000000000E-10  1.0000000000E-10  0.0000000000E+00
  1.0515382593E+03  1.0000000000E-10  1.0000000000E-10  0.0000000000E+00
  1.0517802545E+03  1.0000000000E-10  1.0000000000E-10  0.0000000000E+00
  1.0520223611E+03  1.0000000000E-10  1.0000000000E-10  0.0000000000E+00
  1.0522645792E+03  1.0000000000E-10  1.0000000000E-10  0.0000000000E+00
  1.0525069088E+03  1.0000000000E-10  1.0000000000E-10  0.0000000000E+00
  1.0527493501E+03  1.0000000000E-10  1.0000000000E-10  0.0000000000E+00
  1.0529919031E+03  1.0000000000E-10  1.0000000000E-10  0.0000000000E+00
  1.0532345679E+03  1.0000000000E-10  1.0000000000E-10  0.0000000000E+00
  1.0534773446E+03  1.0000000000E-10  1.0000000000E-10  0.0000000000E+00
  1.0537202332E+03  1.0000000000E-10  1.0000000000E-10  0.0000000000E+00
  1.0539632338E+03  1.0000000000E-10  1.0000000000E-10  0.0000000000E+00
  1.0542063466E+03  1.0000000000E-10  1.0000000000E-10  0.0000000000E+00
  1.0544495715E+03  1.0000000000E-10  1.0000000000E-10  0.0000000000E+00
  1.0546929087E+03  1.0000000000E-10  1.0000000000E-10  0.0000000000E+00
  1.0549363582E+03  1.0000000000E-10  1.0000000000E-10  0.0000000000E+00
  1.0551799202E+03  1.0000000000E-10  1.0000000000E-10  0.0000000000E+00
  1.0554235946E+03  1.0000000000E-10  1.0000000000E-10  0.0000000000E+00
  1.0556673816E+03  1.0000000000E-10  1.0000000000E-10  0.0000000000E+00
  1.0559112813E+03  1.0000000000E-10  1.0000000000E-10  0.0000000000E+00
  1.0561552937E+03  1.0000000000E-10  1.0000000000E-10  0.0000000000E+00
  1.0563994188E+03  1.0000000000E-10  1.0000000000E-10  0.0000000000E+00
  1.0566436569E+03  1.0000000000E-10  1.0000000000E-10  0.0000000000E+00
  1.0568880079E+03  1.0000000000E-10  1.0000000000E-10  0.0000000000E+00
  1.0571324720E+03  1.0000000000E-10  1.0000000000E-10  0.0000000000E+00
  1.0573770492E+03  1.0000000000E-10  1.0000000000E-10  0.0000000000E+00
  1.0576217396E+03  1.0000000000E-10  1.0000000000E-10  0.0000000000E+00
  1.0578665432E+03  1.0000000000E-10  1.0000000000E-10  0.0000000000E+00
  1.0581114602E+03  1.0000000000E-10  1.0000000000E-10  0.0000000000E+00
  1.0583564907E+03  1.0000000000E-10  1.0000000000E-10  0.0000000000E+00
  1.0586016346E+03  1.0000000000E-10  1.0000000000E-10  0.0000000000E+00
  1.0588468922E+03  1.0000000000E-10  1.0000000000E-10  0.0000000000E+00
  1.0590922634E+03  1.0000000000E-10  1.0000000000E-10  0.0000000000E+00
  1.0593377483E+03  1.0000000000E-10  1.0000000000E-10  0.0000000000E+00
  1.0595833471E+03  1.0000000000E-10  1.0000000000E-10  0.0000000000E+00
  1.0598290598E+03  1.0000000000E-10  1.0000000000E-10  0.0000000000E+00
  1.0600748865E+03  1.0000000000E-10  1.0000000000E-10  0.0000000000E+00
  1.0603208273E+03  1.0000000000E-10  1.0000000000E-10  0.0000000000E+00
  1.0605668821E+03  1.0000000000E-10  1.0000000000E-10  0.0000000000E+00
  1.0608130513E+03  1.0000000000E-10  1.0000000000E-10  0.0000000000E+00
  1.0610593347E+03  1.0000000000E-10  1.0000000000E-10  0.0000000000E+00
  1.0613057325E+03  1.0000000000E-10  1.0000000000E-10  0.0000000000E+00
  1.0615522447E+03  1.0000000000E-10  1.0000000000E-10  0.0000000000E+00
  1.0617988716E+03  1.0000000000E-10  1.0000000000E-10  0.0000000000E+00
  1.0620456130E+03  1.0000000000E-10  1.0000000000E-10  0.0000000000E+00
  1.0622924691E+03  1.0000000000E-10  1.0000000000E-10  0.0000000000E+00
  1.0625394400E+03  1.0000000000E-10  1.0000000000E-10  0.0000000000E+00
  1.0627865258E+03  1.0000000000E-10  1.0000000000E-10  0.0000000000E+00
  1.0630337265E+03  1.0000000000E-10  1.0000000000E-10  0.0000000000E+00
  1.0632810423E+03  1.0000000000E-10  1.0000000000E-10  0.0000000000E+00
  1.0635284731E+03  1.0000000000E-10  1.0000000000E-10  0.0000000000E+00
  1.0637760192E+03  1.0000000000E-10  1.0000000000E-10  0.0000000000E+00
  1.0640236804E+03  1.0000000000E-10  1.0000000000E-10  0.0000000000E+00
  1.0642714571E+03  1.0000000000E-10  1.0000000000E-10  0.0000000000E+00
  1.0645193491E+03  1.0000000000E-10  1.0000000000E-10  0.0000000000E+00
  1.0647673567E+03  1.0000000000E-10  1.0000000000E-10  0.0000000000E+00
  1.0650154799E+03  1.0000000000E-10  1.0000000000E-10  0.0000000000E+00
  1.0652637187E+03  1.0000000000E-10  1.0000000000E-10  0.0000000000E+00
  1.0655120733E+03  1.0000000000E-10  1.0000000000E-10  0.0000000000E+00
  1.0657605437E+03  1.0000000000E-10  1.0000000000E-10  0.0000000000E+00
  1.0660091300E+03  1.0000000000E-10  1.0000000000E-10  0.0000000000E+00
  1.0662578323E+03  1.0000000000E-10  1.0000000000E-10  0.0000000000E+00
  1.0665066507E+03  1.0000000000E-10  1.0000000000E-10  0.0000000000E+00
  1.0667555852E+03  1.0000000000E-10  1.0000000000E-10  0.0000000000E+00
  1.0670046360E+03  1.0000000000E-10  1.0000000000E-10  0.0000000000E+00
  1.0672538030E+03  1.0000000000E-10  1.0000000000E-10  0.0000000000E+00
  1.0675030865E+03  1.0000000000E-10  1.0000000000E-10  0.0000000000E+00
  1.0677524865E+03  1.0000000000E-10  1.0000000000E-10  0.0000000000E+00
  1.0680020030E+03  1.0000000000E-10  1.0000000000E-10  0.0000000000E+00
  1.0682516362E+03  1.0000000000E-10  1.0000000000E-10  0.0000000000E+00
  1.0685013861E+03  1.0000000000E-10  1.0000000000E-10  0.0000000000E+00
  1.0687512528E+03  1.0000000000E-10  1.0000000000E-10  0.0000000000E+00
  1.0690012363E+03  1.0000000000E-10  1.0000000000E-10  0.0000000000E+00
  1.0692513369E+03  1.0000000000E-10  1.0000000000E-10  0.0000000000E+00
  1.0695015545E+03  1.0000000000E-10  1.0000000000E-10  0.0000000000E+00
  1.0697518893E+03  1.0000000000E-10  1.0000000000E-10  0.0000000000E+00
  1.0700023412E+03  1.0000000000E-10  1.0000000000E-10  0.0000000000E+00
  1.0702529105E+03  1.0000000000E-10  1.0000000000E-10  0.0000000000E+00
  1.0705035971E+03  1.0000000000E-10  1.0000000000E-10  0.0000000000E+00
  1.0707544012E+03  1.0000000000E-10  1.0000000000E-10  0.0000000000E+00
  1.0710053229E+03  1.0000000000E-10  1.0000000000E-10  0.0000000000E+00
  1.0712563622E+03  1.0000000000E-10  1.0000000000E-10  0.0000000000E+00
  1.0715075192E+03  1.0000000000E-10  1.0000000000E-10  0.0000000000E+00
  1.0717587940E+03  1.0000000000E-10  1.0000000000E-10  0.0000000000E+00
  1.0720101866E+03  1.0000000000E-10  1.0000000000E-10  0.0000000000E+00
  1.0722616973E+03  1.0000000000E-10  1.0000000000E-10  0.0000000000E+00
  1.0725133260E+03  1.0000000000E-10  1.0000000000E-10  0.0000000000E+00
  1.0727650728E+03  1.0000000000E-10  1.0000000000E-10  0.0000000000E+00
  1.0730169378E+03  1.0000000000E-10  1.0000000000E-10  0.0000000000E+00
  1.0732689211E+03  1.0000000000E-10  1.0000000000E-10  0.0000000000E+00
  1.0735210228E+03  1.0000000000E-10  1.0000000000E-10  0.0000000000E+00
  1.0737732429E+03  1.0000000000E-10  1.0000000000E-10  0.0000000000E+00
  1.0740255816E+03  1.0000000000E-10  1.0000000000E-10  0.0000000000E+00
  1.0742780390E+03  1.0000000000E-10  1.0000000000E-10  0.0000000000E+00
  1.0745306150E+03  1.0000000000E-10  1.0000000000E-10  0.0000000000E+00
  1.0747833098E+03  1.0000000000E-10  1.0000000000E-10  0.0000000000E+00
  1.0750361235E+03  1.0000000000E-10  1.0000000000E-10  0.0000000000E+00
  1.0752890562E+03  1.0000000000E-10  1.0000000000E-10  0.0000000000E+00
  1.0755421079E+03  1.0000000000E-10  1.0000000000E-10  0.0000000000E+00
  1.0757952788E+03  1.0000000000E-10  1.0000000000E-10  0.0000000000E+00
  1.0760485688E+03  1.0000000000E-10  1.0000000000E-10  0.0000000000E+00
  1.0763019782E+03  1.0000000000E-10  1.0000000000E-10  0.0000000000E+00
  1.0765555069E+03  1.0000000000E-10  1.0000000000E-10  0.0000000000E+00
  1.0768091552E+03  1.0000000000E-10  1.0000000000E-10  0.0000000000E+00
  1.0770629229E+03  1.0000000000E-10  1.0000000000E-10  0.0000000000E+00
  1.0773168103E+03  1.0000000000E-10  1.0000000000E-10  0.0000000000E+00
  1.0775708175E+03  1.0000000000E-10  1.0000000000E-10  0.0000000000E+00
  1.0778249444E+03  1.0000000000E-10  1.0000000000E-10  0.0000000000E+00
  1.0780791912E+03  1.0000000000E-10  1.0000000000E-10  0.0000000000E+00
  1.0783335580E+03  1.0000000000E-10  1.0000000000E-10  0.0000000000E+00
  1.0785880449E+03  1.0000000000E-10  1.0000000000E-10  0.0000000000E+00
  1.0788426519E+03  1.0000000000E-10  1.0000000000E-10  0.0000000000E+00
  1.0790973792E+03  1.0000000000E-10  1.0000000000E-10  0.0000000000E+00
  1.0793522267E+03  1.0000000000E-10  1.0000000000E-10  0.0000000000E+00
  1.0796071947E+03  1.0000000000E-10  1.0000000000E-10  0.0000000000E+00
  1.0798622831E+03  1.0000000000E-10  1.0000000000E-10  0.0000000000E+00
  1.0801174922E+03  1.0000000000E-10  1.0000000000E-10  0.0000000000E+00
  1.0803728218E+03  1.0000000000E-10  1.0000000000E-10  0.0000000000E+00
  1.0806282723E+03  1.0000000000E-10  1.0000000000E-10  0.0000000000E+00
  1.0808838435E+03  1.0000000000E-10  1.0000000000E-10  0.0000000000E+00
  1.0811395357E+03  1.0000000000E-10  1.0000000000E-10  0.0000000000E+00
  1.0813953488E+03  1.0000000000E-10  1.0000000000E-10  0.0000000000E+00
  1.0816512831E+03  1.0000000000E-10  1.0000000000E-10  0.0000000000E+00
  1.0819073385E+03  1.0000000000E-10  1.0000000000E-10  0.0000000000E+00
  1.0821635152E+03  1.0000000000E-10  1.0000000000E-10  0.0000000000E+00
  1.0824198132E+03  1.0000000000E-10  1.0000000000E-10  0.0000000000E+00
  1.0826762327E+03  1.0000000000E-10  1.0000000000E-10  0.0000000000E+00
  1.0829327737E+03  1.0000000000E-10  1.0000000000E-10  0.0000000000E+00
  1.0831894363E+03  1.0000000000E-10  1.0000000000E-10  0.0000000000E+00
  1.0834462205E+03  1.0000000000E-10  1.0000000000E-10  0.0000000000E+00
  1.0837031266E+03  1.0000000000E-10  1.0000000000E-10  0.0000000000E+00
  1.0839601545E+03  1.0000000000E-10  1.0000000000E-10  0.0000000000E+00
  1.0842173044E+03  1.0000000000E-10  1.0000000000E-10  0.0000000000E+00
  1.0844745763E+03  1.0000000000E-10  1.0000000000E-10  0.0000000000E+00
  1.0847319703E+03  1.0000000000E-10  1.0000000000E-10  0.0000000000E+00
  1.0849894865E+03  1.0000000000E-10  1.0000000000E-10  0.0000000000E+00
  1.0852471251E+03  1.0000000000E-10  1.0000000000E-10  0.0000000000E+00
  1.0855048860E+03  1.0000000000E-10  1.0000000000E-10  0.0000000000E+00
  1.0857627694E+03  1.0000000000E-10  1.0000000000E-10  0.0000000000E+00
  1.0860207753E+03  1.0000000000E-10  1.0000000000E-10  0.0000000000E+00
  1.0862789039E+03  1.0000000000E-10  1.0000000000E-10  0.0000000000E+00
  1.0865371553E+03  1.0000000000E-10  1.0000000000E-10  0.0000000000E+00
  1.0867955294E+03  1.0000000000E-10  1.0000000000E-10  0.0000000000E+00
  1.0870540265E+03  1.0000000000E-10  1.0000000000E-10  0.0000000000E+00
  1.0873126466E+03  1.0000000000E-10  1.0000000000E-10  0.0000000000E+00
  1.0875713897E+03  1.0000000000E-10  1.0000000000E-10  0.0000000000E+00
  1.0878302560E+03  1.0000000000E-10  1.0000000000E-10  0.0000000000E+00
  1.0880892456E+03  1.0000000000E-10  1.0000000000E-10  0.0000000000E+00
  1.0883483586E+03  1.0000000000E-10  1.0000000000E-10  0.0000000000E+00
  1.0886075949E+03  1.0000000000E-10  1.0000000000E-10  0.0000000000E+00
  1.0888669548E+03  1.0000000000E-10  1.0000000000E-10  0.0000000000E+00
  1.0891264383E+03  1.0000000000E-10  1.0000000000E-10  0.0000000000E+00
  1.0893860456E+03  1.0000000000E-10  1.0000000000E-10  0.0000000000E+00
  1.0896457766E+03  1.0000000000E-10  1.0000000000E-10  0.0000000000E+00
  1.0899056315E+03  1.0000000000E-10  1.0000000000E-10  0.0000000000E+00
  1.0901656103E+03  1.0000000000E-10  1.0000000000E-10  0.0000000000E+00
  1.0904257132E+03  1.0000000000E-10  1.0000000000E-10  0.0000000000E+00
  1.0906859403E+03  1.0000000000E-10  1.0000000000E-10  0.0000000000E+00
  1.0909462916E+03  1.0000000000E-10  1.0000000000E-10  0.0000000000E+00
  1.0912067672E+03  1.0000000000E-10  1.0000000000E-10  0.0000000000E+00
  1.0914673672E+03  1.0000000000E-10  1.0000000000E-10  0.0000000000E+00
  1.0917280917E+03  1.0000000000E-10  1.0000000000E-10  0.0000000000E+00
  1.0919889408E+03  1.0000000000E-10  1.0000000000E-10  0.0000000000E+00
  1.0922499146E+03  1.0000000000E-10  1.0000000000E-10  0.0000000000E+00
  1.0925110132E+03  1.0000000000E-10  1.0000000000E-10  0.0000000000E+00
  1.0927722366E+03  1.0000000000E-10  1.0000000000E-10  0.0000000000E+00
  1.0930335850E+03  1.0000000000E-10  1.0000000000E-10  0.0000000000E+00
  1.0932950584E+03  1.0000000000E-10  1.0000000000E-10  0.0000000000E+00
  1.0935566570E+03  1.0000000000E-10  1.0000000000E-10  0.0000000000E+00
  1.0938183807E+03  1.0000000000E-10  1.0000000000E-10  0.0000000000E+00
  1.0940802298E+03  1.0000000000E-10  1.0000000000E-10  0.0000000000E+00
  1.0943422043E+03  1.0000000000E-10  1.0000000000E-10  0.0000000000E+00
  1.0946043042E+03  1.0000000000E-10  1.0000000000E-10  0.0000000000E+00
  1.0948665298E+03  1.0000000000E-10  1.0000000000E-10  0.0000000000E+00
  1.0951288810E+03  1.0000000000E-10  1.0000000000E-10  0.0000000000E+00
  1.0953913579E+03  1.0000000000E-10  1.0000000000E-10  0.0000000000E+00
  1.0956539608E+03  1.0000000000E-10  1.0000000000E-10  0.0000000000E+00
  1.0959166895E+03  1.0000000000E-10  1.0000000000E-10  0.0000000000E+00
  1.0961795443E+03  1.0000000000E-10  1.0000000000E-10  0.0000000000E+00
  1.0964425252E+03  1.0000000000E-10  1.0000000000E-10  0.0000000000E+00
  1.0967056323E+03  1.0000000000E-10  1.0000000000E-10  0.0000000000E+00
  1.0969688657E+03  1.0000000000E-10  1.0000000000E-10  0.0000000000E+00
  1.0972322255E+03  1.0000000000E-10  1.0000000000E-10  0.0000000000E+00
  1.0974957118E+03  1.0000000000E-10  1.0000000000E-10  0.0000000000E+00
  1.0977593247E+03  1.0000000000E-10  1.0000000000E-10  0.0000000000E+00