TITLE      = Boundary data
VARIABLES  =  "x0" "x1" "p" "u" "v" "T"
ZONE N=180, T="1, TR 0", E=179, F=FEPOINT, ET=LINESEG, SOLUTIONTIME=0
      0.050763760000      -4.468014000000 50.000000000000 -5102.610000000000 0.000000000000 288.000000000000 
      0.101162200000      -4.435455000000 50.000000000000 -5102.610000000000 0.000000000000 288.000000000000 
      0.151188800000      -4.402327000000 50.000000000000 -5102.610000000000 0.000000000000 288.000000000000 
      0.200837100000      -4.368636000000 50.000000000000 -5102.610000000000 0.000000000000 288.000000000000 
      0.250100900000      -4.334384000000 50.000000000000 -5102.610000000000 0.000000000000 288.000000000000 
      0.298973800000      -4.299577000000 50.000000000000 -5102.610000000000 0.000000000000 288.000000000000 
      0.347449500000      -4.264219000000 50.000000000000 -5102.610000000000 0.000000000000 288.000000000000 
      0.395521700000      -4.228314000000 50.000000000000 -5102.610000000000 0.000000000000 288.000000000000 
      0.443184500000      -4.191868000000 50.000000000000 -5102.610000000000 0.000000000000 288.000000000000 
      0.490431600000      -4.154884000000 50.000000000000 -5102.610000000000 0.000000000000 288.000000000000 
      0.537257000000      -4.117368000000 50.000000000000 -5102.610000000000 0.000000000000 288.000000000000 
      0.583654700000      -4.079324000000 50.000000000000 -5102.610000000000 0.000000000000 288.000000000000 
      0.629618700000      -4.040757000000 50.000000000000 -5102.610000000000 0.000000000000 288.000000000000 
      0.675143100000      -4.001672000000 50.000000000000 -5102.610000000000 0.000000000000 288.000000000000 
      0.720222200000      -3.962075000000 50.000000000000 -5102.610000000000 0.000000000000 288.000000000000 
      0.764850100000      -3.921969000000 50.000000000000 -5102.610000000000 0.000000000000 288.000000000000 
      0.809021200000      -3.881361000000 50.000000000000 -5102.610000000000 0.000000000000 288.000000000000 
      0.852729700000      -3.840256000000 50.000000000000 -5102.610000000000 0.000000000000 288.000000000000 
      0.895970000000      -3.798658000000 50.000000000000 -5102.610000000000 0.000000000000 288.000000000000 
      0.938736700000      -3.756574000000 50.000000000000 -5102.610000000000 0.000000000000 288.000000000000 
      0.981024200000      -3.714008000000 50.000000000000 -5102.610000000000 0.000000000000 288.000000000000 
      1.022827000000      -3.670966000000 50.000000000000 -5102.610000000000 0.000000000000 288.000000000000 
      1.064140000000      -3.627454000000 50.000000000000 -5102.610000000000 0.000000000000 288.000000000000 
      1.104958000000      -3.583477000000 50.000000000000 -5102.610000000000 0.000000000000 288.000000000000 
      1.145275000000      -3.539040000000 50.000000000000 -5102.610000000000 0.000000000000 288.000000000000 
      1.185087000000      -3.494150000000 50.000000000000 -5102.610000000000 0.000000000000 288.000000000000 
      1.224388000000      -3.448812000000 50.000000000000 -5102.610000000000 0.000000000000 288.000000000000 
      1.263173000000      -3.403032000000 50.000000000000 -5102.610000000000 0.000000000000 288.000000000000 
      1.301437000000      -3.356816000000 50.000000000000 -5102.610000000000 0.000000000000 288.000000000000 
      1.339176000000      -3.310170000000 50.000000000000 -5102.610000000000 0.000000000000 288.000000000000 
      1.376384000000      -3.263099000000 50.000000000000 -5102.610000000000 0.000000000000 288.000000000000 
      1.413057000000      -3.215610000000 50.000000000000 -5102.610000000000 0.000000000000 288.000000000000 
      1.449190000000      -3.167710000000 50.000000000000 -5102.610000000000 0.000000000000 288.000000000000 
      1.484778000000      -3.119403000000 50.000000000000 -5102.610000000000 0.000000000000 288.000000000000 
      1.519818000000      -3.070696000000 50.000000000000 -5102.610000000000 0.000000000000 288.000000000000 
      1.554303000000      -3.021596000000 50.000000000000 -5102.610000000000 0.000000000000 288.000000000000 
      1.588231000000      -2.972108000000 50.000000000000 -5102.610000000000 0.000000000000 288.000000000000 
      1.621596000000      -2.922240000000 50.000000000000 -5102.610000000000 0.000000000000 288.000000000000 
      1.654395000000      -2.871997000000 50.000000000000 -5102.610000000000 0.000000000000 288.000000000000 
      1.686622000000      -2.821386000000 50.000000000000 -5102.610000000000 0.000000000000 288.000000000000 
      1.718275000000      -2.770414000000 50.000000000000 -5102.610000000000 0.000000000000 288.000000000000 
      1.749348000000      -2.719086000000 50.000000000000 -5102.610000000000 0.000000000000 288.000000000000 
      1.779839000000      -2.667410000000 50.000000000000 -5102.610000000000 0.000000000000 288.000000000000 
      1.809742000000      -2.615392000000 50.000000000000 -5102.610000000000 0.000000000000 288.000000000000 
      1.839055000000      -2.563039000000 50.000000000000 -5102.610000000000 0.000000000000 288.000000000000 
      1.867773000000      -2.510357000000 50.000000000000 -5102.610000000000 0.000000000000 288.000000000000 
      1.895893000000      -2.457354000000 50.000000000000 -5102.610000000000 0.000000000000 288.000000000000 
      1.923411000000      -2.404036000000 50.000000000000 -5102.610000000000 0.000000000000 288.000000000000 
      1.950324000000      -2.350409000000 50.000000000000 -5102.610000000000 0.000000000000 288.000000000000 
      1.976628000000      -2.296481000000 50.000000000000 -5102.610000000000 0.000000000000 288.000000000000 
      2.002319000000      -2.242259000000 50.000000000000 -5102.610000000000 0.000000000000 288.000000000000 
      2.027396000000      -2.187750000000 50.000000000000 -5102.610000000000 0.000000000000 288.000000000000 
      2.051853000000      -2.132960000000 50.000000000000 -5102.610000000000 0.000000000000 288.000000000000 
      2.075689000000      -2.077897000000 50.000000000000 -5102.610000000000 0.000000000000 288.000000000000 
      2.098900000000      -2.022568000000 50.000000000000 -5102.610000000000 0.000000000000 288.000000000000 
      2.121483000000      -1.966979000000 50.000000000000 -5102.610000000000 0.000000000000 288.000000000000 
      2.143435000000      -1.911138000000 50.000000000000 -5102.610000000000 0.000000000000 288.000000000000 
      2.164754000000      -1.855053000000 50.000000000000 -5102.610000000000 0.000000000000 288.000000000000 
      2.185436000000      -1.798729000000 50.000000000000 -5102.610000000000 0.000000000000 288.000000000000 
      2.205479000000      -1.742175000000 50.000000000000 -5102.610000000000 0.000000000000 288.000000000000 
      2.224881000000      -1.685398000000 50.000000000000 -5102.610000000000 0.000000000000 288.000000000000 
      2.243639000000      -1.628405000000 50.000000000000 -5102.610000000000 0.000000000000 288.000000000000 
      2.261751000000      -1.571203000000 50.000000000000 -5102.610000000000 0.000000000000 288.000000000000 
      2.279214000000      -1.513800000000 50.000000000000 -5102.610000000000 0.000000000000 288.000000000000 
      2.296025000000      -1.456202000000 50.000000000000 -5102.610000000000 0.000000000000 288.000000000000 
      2.312184000000      -1.398418000000 50.000000000000 -5102.610000000000 0.000000000000 288.000000000000 
      2.327688000000      -1.340455000000 50.000000000000 -5102.610000000000 0.000000000000 288.000000000000 
      2.342534000000      -1.282320000000 50.000000000000 -5102.610000000000 0.000000000000 288.000000000000 
      2.356721000000      -1.224021000000 50.000000000000 -5102.610000000000 0.000000000000 288.000000000000 
      2.370247000000      -1.165565000000 50.000000000000 -5102.610000000000 0.000000000000 288.000000000000 
      2.383111000000      -1.106959000000 50.000000000000 -5102.610000000000 0.000000000000 288.000000000000 
      2.395311000000      -1.048212000000 50.000000000000 -5102.610000000000 0.000000000000 288.000000000000 
      2.406844000000      -0.989330100000 50.000000000000 -5102.610000000000 0.000000000000 288.000000000000 
      2.417710000000      -0.930321500000 50.000000000000 -5102.610000000000 0.000000000000 288.000000000000 
      2.427908000000      -0.871193700000 50.000000000000 -5102.610000000000 0.000000000000 288.000000000000 
      2.437435000000      -0.811954200000 50.000000000000 -5102.610000000000 0.000000000000 288.000000000000 
      2.446292000000      -0.752610700000 50.000000000000 -5102.610000000000 0.000000000000 288.000000000000 
      2.454476000000      -0.693170700000 50.000000000000 -5102.610000000000 0.000000000000 288.000000000000 
      2.461986000000      -0.633641900000 50.000000000000 -5102.610000000000 0.000000000000 288.000000000000 
      2.468822000000      -0.574031900000 50.000000000000 -5102.610000000000 0.000000000000 288.000000000000 
      2.474983000000      -0.514348300000 50.000000000000 -5102.610000000000 0.000000000000 288.000000000000 
      2.480468000000      -0.454598800000 50.000000000000 -5102.610000000000 0.000000000000 288.000000000000 
      2.485276000000      -0.394791000000 50.000000000000 -5102.610000000000 0.000000000000 288.000000000000 
      2.489406000000      -0.334932600000 50.000000000000 -5102.610000000000 0.000000000000 288.000000000000 
      2.492859000000      -0.275031300000 50.000000000000 -5102.610000000000 0.000000000000 288.000000000000 
      2.495633000000      -0.215094700000 50.000000000000 -5102.610000000000 0.000000000000 288.000000000000 
      2.497729000000      -0.155130600000 50.000000000000 -5102.610000000000 0.000000000000 288.000000000000 
      2.499146000000      -0.095146620000 50.000000000000 -5102.610000000000 0.000000000000 288.000000000000 
      2.499883000000      -0.035150430000 50.000000000000 -5102.610000000000 0.000000000000 288.000000000000 
      2.499942000000       0.024850270000 50.000000000000 -5102.610000000000 0.000000000000 288.000000000000 
      2.499321000000       0.084847790000 50.000000000000 -5102.610000000000 0.000000000000 288.000000000000 
      2.498021000000       0.144834400000 50.000000000000 -5102.610000000000 0.000000000000 288.000000000000 
      2.496042000000       0.204802500000 50.000000000000 -5102.610000000000 0.000000000000 288.000000000000 
      2.493384000000       0.264744300000 50.000000000000 -5102.610000000000 0.000000000000 288.000000000000 
      2.490047000000       0.324652200000 50.000000000000 -5102.610000000000 0.000000000000 288.000000000000 
      2.486033000000       0.384518500000 50.000000000000 -5102.610000000000 0.000000000000 288.000000000000 
      2.481341000000       0.444335500000 50.000000000000 -5102.610000000000 0.000000000000 288.000000000000 
      2.475973000000       0.504095600000 50.000000000000 -5102.610000000000 0.000000000000 288.000000000000 
      2.469928000000       0.563791100000 50.000000000000 -5102.610000000000 0.000000000000 288.000000000000 
      2.463208000000       0.623414300000 50.000000000000 -5102.610000000000 0.000000000000 288.000000000000 
      2.455813000000       0.682957600000 50.000000000000 -5102.610000000000 0.000000000000 288.000000000000 
      2.447744000000       0.742413300000 50.000000000000 -5102.610000000000 0.000000000000 288.000000000000 
      2.439004000000       0.801774000000 50.000000000000 -5102.610000000000 0.000000000000 288.000000000000 
      2.429591000000       0.861031800000 50.000000000000 -5102.610000000000 0.000000000000 288.000000000000 
      2.419509000000       0.920179400000 50.000000000000 -5102.610000000000 0.000000000000 288.000000000000 
      2.408757000000       0.979208900000 50.000000000000 -5102.610000000000 0.000000000000 288.000000000000 
      2.397338000000       1.038113000000 50.000000000000 -5102.610000000000 0.000000000000 288.000000000000 
      2.385253000000       1.096884000000 50.000000000000 -5102.610000000000 0.000000000000 288.000000000000 
      2.372503000000       1.155515000000 50.000000000000 -5102.610000000000 0.000000000000 288.000000000000 
      2.359090000000       1.213997000000 50.000000000000 -5102.610000000000 0.000000000000 288.000000000000 
      2.345016000000       1.272324000000 50.000000000000 -5102.610000000000 0.000000000000 288.000000000000 
      2.330283000000       1.330487000000 50.000000000000 -5102.610000000000 0.000000000000 288.000000000000 
      2.314892000000       1.388481000000 50.000000000000 -5102.610000000000 0.000000000000 288.000000000000 
      2.298846000000       1.446296000000 50.000000000000 -5102.610000000000 0.000000000000 288.000000000000 
      2.282146000000       1.503926000000 50.000000000000 -5102.610000000000 0.000000000000 288.000000000000 
      2.264795000000       1.561363000000 50.000000000000 -5102.610000000000 0.000000000000 288.000000000000 
      2.246794000000       1.618600000000 50.000000000000 -5102.610000000000 0.000000000000 288.000000000000 
      2.228147000000       1.675629000000 50.000000000000 -5102.610000000000 0.000000000000 288.000000000000 
      2.208856000000       1.732444000000 50.000000000000 -5102.610000000000 0.000000000000 288.000000000000 
      2.188922000000       1.789037000000 50.000000000000 -5102.610000000000 0.000000000000 288.000000000000 
      2.168350000000       1.845401000000 50.000000000000 -5102.610000000000 0.000000000000 288.000000000000 
      2.147140000000       1.901528000000 50.000000000000 -5102.610000000000 0.000000000000 288.000000000000 
      2.125296000000       1.957411000000 50.000000000000 -5102.610000000000 0.000000000000 288.000000000000 
      2.102821000000       2.013043000000 50.000000000000 -5102.610000000000 0.000000000000 288.000000000000 
      2.079718000000       2.068418000000 50.000000000000 -5102.610000000000 0.000000000000 288.000000000000 
      2.055989000000       2.123527000000 50.000000000000 -5102.610000000000 0.000000000000 288.000000000000 
      2.031638000000       2.178364000000 50.000000000000 -5102.610000000000 0.000000000000 288.000000000000 
      2.006668000000       2.232922000000 50.000000000000 -5102.610000000000 0.000000000000 288.000000000000 
      1.981082000000       2.287194000000 50.000000000000 -5102.610000000000 0.000000000000 288.000000000000 
      1.954883000000       2.341173000000 50.000000000000 -5102.610000000000 0.000000000000 288.000000000000 
      1.928074000000       2.394851000000 50.000000000000 -5102.610000000000 0.000000000000 288.000000000000 
      1.900660000000       2.448223000000 50.000000000000 -5102.610000000000 0.000000000000 288.000000000000 
      1.872643000000       2.501281000000 50.000000000000 -5102.610000000000 0.000000000000 288.000000000000 
      1.844027000000       2.554018000000 50.000000000000 -5102.610000000000 0.000000000000 288.000000000000 
      1.814816000000       2.606428000000 50.000000000000 -5102.610000000000 0.000000000000 288.000000000000 
      1.785014000000       2.658504000000 50.000000000000 -5102.610000000000 0.000000000000 288.000000000000 
      1.754624000000       2.710240000000 50.000000000000 -5102.610000000000 0.000000000000 288.000000000000 
      1.723650000000       2.761628000000 50.000000000000 -5102.610000000000 0.000000000000 288.000000000000 
      1.692097000000       2.812662000000 50.000000000000 -5102.610000000000 0.000000000000 288.000000000000 
      1.659968000000       2.863335000000 50.000000000000 -5102.610000000000 0.000000000000 288.000000000000 
      1.627267000000       2.913642000000 50.000000000000 -5102.610000000000 0.000000000000 288.000000000000 
      1.593998000000       2.963576000000 50.000000000000 -5102.610000000000 0.000000000000 288.000000000000 
      1.560166000000       3.013129000000 50.000000000000 -5102.610000000000 0.000000000000 288.000000000000 
      1.525776000000       3.062297000000 50.000000000000 -5102.610000000000 0.000000000000 288.000000000000 
      1.490831000000       3.111073000000 50.000000000000 -5102.610000000000 0.000000000000 288.000000000000 
      1.455335000000       3.159450000000 50.000000000000 -5102.610000000000 0.000000000000 288.000000000000 
      1.419294000000       3.207422000000 50.000000000000 -5102.610000000000 0.000000000000 288.000000000000 
      1.382712000000       3.254984000000 50.000000000000 -5102.610000000000 0.000000000000 288.000000000000 
      1.345593000000       3.302130000000 50.000000000000 -5102.610000000000 0.000000000000 288.000000000000 
      1.307941000000       3.348853000000 50.000000000000 -5102.610000000000 0.000000000000 288.000000000000 
      1.269762000000       3.395149000000 50.000000000000 -5102.610000000000 0.000000000000 288.000000000000 
      1.231060000000       3.441010000000 50.000000000000 -5102.610000000000 0.000000000000 288.000000000000 
      1.191839000000       3.486433000000 50.000000000000 -5102.610000000000 0.000000000000 288.000000000000 
      1.152104000000       3.531412000000 50.000000000000 -5102.610000000000 0.000000000000 288.000000000000 
      1.111859000000       3.575942000000 50.000000000000 -5102.610000000000 0.000000000000 288.000000000000 
      1.071108000000       3.620017000000 50.000000000000 -5102.610000000000 0.000000000000 288.000000000000 
      1.029855000000       3.663634000000 50.000000000000 -5102.610000000000 0.000000000000 288.000000000000 
      0.988103200000       3.706788000000 50.000000000000 -5102.610000000000 0.000000000000 288.000000000000 
      0.945856900000       3.749474000000 50.000000000000 -5102.610000000000 0.000000000000 288.000000000000 
      0.903118800000       3.791690000000 50.000000000000 -5102.610000000000 0.000000000000 288.000000000000 
      0.859891700000       3.833431000000 50.000000000000 -5102.610000000000 0.000000000000 288.000000000000 
      0.816177800000       3.874695000000 50.000000000000 -5102.610000000000 0.000000000000 288.000000000000 
      0.771979100000       3.915478000000 50.000000000000 -5102.610000000000 0.000000000000 288.000000000000 
      0.727296900000       3.955778000000 50.000000000000 -5102.610000000000 0.000000000000 288.000000000000 
      0.682132300000       3.995592000000 50.000000000000 -5102.610000000000 0.000000000000 288.000000000000 
      0.636485800000       4.034918000000 50.000000000000 -5102.610000000000 0.000000000000 288.000000000000 
      0.590357900000       4.073754000000 50.000000000000 -5102.610000000000 0.000000000000 288.000000000000 
      0.543748700000       4.112097000000 50.000000000000 -5102.610000000000 0.000000000000 288.000000000000 
      0.496658500000       4.149945000000 50.000000000000 -5102.610000000000 0.000000000000 288.000000000000 
      0.449087800000       4.187294000000 50.000000000000 -5102.610000000000 0.000000000000 288.000000000000 
      0.401037700000       4.224140000000 50.000000000000 -5102.610000000000 0.000000000000 288.000000000000 
      0.352510400000       4.260479000000 50.000000000000 -5102.610000000000 0.000000000000 288.000000000000 
      0.303509300000       4.296304000000 50.000000000000 -5102.610000000000 0.000000000000 288.000000000000 
      0.254039400000       4.331610000000 50.000000000000 -5102.610000000000 0.000000000000 288.000000000000 
      0.204108000000       4.366387000000 50.000000000000 -5102.610000000000 0.000000000000 288.000000000000 
      0.153724800000       4.400626000000 50.000000000000 -5102.610000000000 0.000000000000 288.000000000000 
      0.102901900000       4.434316000000 50.000000000000 -5102.610000000000 0.000000000000 288.000000000000 
      0.051654450000       4.467445000000 50.000000000000 -5102.610000000000 0.000000000000 288.000000000000 
      0.000000000000       4.500000000000 50.000000000000 -5102.610000000000 0.000000000000 288.000000000000 
      0.000000000000      -4.500000000000 50.000000000000 -5102.610000000000 0.000000000000 288.000000000000 
180 1 
1 2 
2 3 
3 4 
4 5 
5 6 
6 7 
7 8 
8 9 
10 11 
9 10 
11 12 
12 13 
13 14 
14 15 
16 17 
15 16 
17 18 
19 20 
18 19 
20 21 
21 22 
22 23 
23 24 
178 179 
177 178 
176 177 
175 176 
174 175 
173 174 
172 173 
171 172 
170 171 
169 170 
168 169 
167 168 
166 167 
165 166 
164 165 
163 164 
162 163 
161 162 
160 161 
159 160 
158 159 
156 157 
157 158 
24 25 
25 26 
27 28 
26 27 
29 30 
28 29 
30 31 
31 32 
32 33 
33 34 
34 35 
35 36 
37 38 
36 37 
38 39 
40 41 
41 42 
42 43 
39 40 
44 45 
46 47 
45 46 
47 48 
43 44 
49 50 
48 49 
50 51 
51 52 
52 53 
53 54 
54 55 
55 56 
56 57 
57 58 
59 60 
58 59 
61 62 
62 63 
60 61 
63 64 
65 66 
66 67 
67 68 
68 69 
64 65 
69 70 
70 71 
71 72 
73 74 
74 75 
76 77 
75 76 
72 73 
78 79 
79 80 
77 78 
80 81 
81 82 
82 83 
83 84 
85 86 
84 85 
87 88 
86 87 
88 89 
89 90 
154 155 
155 156 
153 154 
151 152 
152 153 
150 151 
149 150 
148 149 
147 148 
146 147 
145 146 
144 145 
143 144 
140 141 
142 143 
141 142 
90 91 
92 93 
91 92 
94 95 
93 94 
96 97 
95 96 
97 98 
98 99 
100 101 
99 100 
101 102 
103 104 
102 103 
105 106 
104 105 
106 107 
139 140 
137 138 
138 139 
136 137 
135 136 
134 135 
133 134 
132 133 
107 108 
109 110 
108 109 
111 112 
110 111 
113 114 
112 113 
114 115 
130 131 
131 132 
129 130 
128 129 
127 128 
115 116 
117 118 
116 117 
118 119 
126 127 
125 126 
124 125 
119 120 
120 121 
123 124 
122 123 
121 122 
ZONE N=59, T="2, TR 0", E=58, F=FEPOINT, ET=LINESEG, SOLUTIONTIME=0.000000000000
      0.000000000000       4.500000000000 50.000000000000 -5102.610000000000 0.000000000000 288.000000000000 
      0.000000000000       4.440000000000 50.000000000001 -5102.610000000000 0.000000000001 288.000000000006 
      0.000000000000       4.380000000000 50.000000000005 -5102.609999999996 -0.000000000001 288.000000000030 
      0.000000000000       4.320000000000 49.999999999999 -5102.609999999999 0.000000000002 287.999999999992 
      0.000000000000       4.260000000000 50.000000000004 -5102.609999999989 0.000000000003 288.000000000025 
      0.000000000000       4.200000000000 50.000000000001 -5102.609999999996 -0.000000000003 288.000000000004 
      0.000000000000       4.140000000000 50.000000000001 -5102.609999999999 -0.000000000006 288.000000000006 
      0.000000000000       4.080000000000 49.999999999997 -5102.610000000000 -0.000000000003 287.999999999985 
      0.000000000000       4.020000000000 49.999999999994 -5102.610000000004 0.000000000002 287.999999999963 
      0.000000000000       3.960000000000 49.999999999996 -5102.610000000007 0.000000000005 287.999999999975 
      0.000000000000       3.900000000000 49.999999999998 -5102.610000000005 -0.000000000002 287.999999999988 
      0.000000000000       3.840000000000 49.999999999994 -5102.610000000008 0.000000000001 287.999999999964 
      0.000000000000       3.780000000000 49.999999999994 -5102.610000000010 0.000000000008 287.999999999966 
      0.000000000000       3.720000000000 50.000000000005 -5102.609999999999 0.000000000012 288.000000000031 
      0.000000000000       3.660000000000 50.000000000009 -5102.609999999993 -0.000000000005 288.000000000056 
      0.000000000000       3.600000000000 50.000000000000 -5102.610000000004 -0.000000000014 288.000000000003 
      0.000000000000       3.540000000000 50.000000000001 -5102.610000000001 -0.000000000011 288.000000000003 
      0.000000000000       3.479999000000 50.000000000000 -5102.610000000001 -0.000000000006 287.999999999998 
      0.000000000000       3.419999000000 49.999999999995 -5102.610000000009 -0.000000000001 287.999999999970 
      0.000000000000       3.359999000000 49.999999999996 -5102.610000000010 0.000000000006 287.999999999974 
      0.000000000000       3.299998000000 50.000000000004 -5102.610000000001 0.000000000008 288.000000000022 
      0.000000000000       3.239997000000 50.000000000006 -5102.609999999996 0.000000000007 288.000000000035 
      0.000000000000       3.179996000000 50.000000000009 -5102.609999999996 0.000000000009 288.000000000048 
      0.000000000000       3.119995000000 50.000000000011 -5102.609999999995 0.000000000008 288.000000000062 
      0.000000000000       3.059993000000 50.000000000012 -5102.609999999994 0.000000000005 288.000000000069 
      0.000000000000       2.999990000000 50.000000000013 -5102.609999999993 0.000000000005 288.000000000077 
      0.000000000000       2.939986000000 50.000000000009 -5102.609999999994 0.000000000004 288.000000000053 
      0.000000000000       2.879981000000 50.000000000002 -5102.610000000000 0.000000000001 288.000000000015 
      0.000000000000       2.819973000000 50.000000000004 -5102.609999999995 -0.000000000002 288.000000000026 
      0.000000000000       2.759964000000 50.000000000004 -5102.609999999999 -0.000000000014 288.000000000029 
      0.000000000000       2.699950000000 50.000000000004 -5102.610000000002 -0.000000000018 288.000000000025 
      0.000000000000       2.639933000000 50.000000000000 -5102.610000000003 -0.000000000020 288.000000000000 
      0.000000000000       2.579910000000 49.999999999999 -5102.610000000006 -0.000000000017 287.999999999985 
      0.000000000000       2.519879000000 49.999999999995 -5102.610000000011 -0.000000000004 287.999999999960 
      0.000000000000       2.459839000000 196.154202938492 -4942.997586471962 219.502688654147 967.641159515847 
      0.000000000000       2.399787000000 3196.572958179223 -3733.995591293647 1663.088868004804 4729.339341375095 
      0.000000000000       2.339720000000 5055.532756050799 -3318.785853988761 1976.980447690540 5844.372703870545 
      0.000000000000       2.279634000000 5206.329028333567 -3191.949566367613 1945.591792352385 6318.172459978507 
      0.000000000000       2.219524000000 5048.881174570814 -3128.860781986238 1869.249980868555 6651.235723843932 
      0.000000000000       2.159384000000 4850.488779507402 -3078.920782001098 1791.348532653097 6949.845685808566 
      0.000000000000       2.099209000000 4663.646596342600 -3030.610659655903 1714.604260253505 7210.259662561590 
      0.000000000000       2.038991000000 4494.759475315549 -2984.798317779127 1639.407440160521 7443.630057289555 
      0.000000000000       1.978721000000 4339.712404168526 -2951.838297976108 1572.376794748983 7658.911017044124 
      0.000000000000       1.918390000000 4192.961104696439 -2915.503303442986 1504.449722489856 7832.580393409648 
      0.000000000000       1.857987000000 4056.561495514734 -2915.247442263480 1456.723652344609 7931.976974273167 
      0.000000000000       1.797502000000 3917.582591292384 -2918.945066224887 1408.907565772345 8037.450068301885 
      0.000000000000       1.736922000000 3775.733250862705 -2915.410463833292 1355.475666168069 8161.428787905594 
      0.000000000000       1.676236000000 3634.450913780400 -2913.260254520464 1301.534172022441 8255.988483648815 
      0.000000000000       1.615432000000 3491.093562420206 -2913.760399510275 1246.809173809837 8317.772372676171 
      0.000000000000       1.554500000000 3344.461926587460 -2920.348987039947 1192.385793034195 8356.914138750726 
      0.000000000000       1.493431000000 3192.534457779786 -2937.860541376595 1139.212480650907 8341.208167926301 
      0.000000000000       1.432219000000 3031.148386371576 -2969.816359978028 1086.521605999053 8280.649632560595 
      0.000000000000       1.370860000000 2854.475651730836 -3013.125484822475 1029.992429011264 8194.369061290230 
      0.000000000000       1.309354000000 2659.421092130557 -3067.389438073214 966.866043155115 8095.378921517952 
      0.000000000000       1.247707000000 2439.181631805036 -3134.824942390642 892.349993643564 7977.834916328190 
      0.000000000000       1.185929000000 2179.314172575469 -3219.636794157053 794.164652849706 7808.650070522445 
      0.000000000000       1.124037000000 1840.051790249345 -3344.990080261581 643.047489330657 7512.175802624468 
      0.000000000000       1.062052000000 1438.987605203902 -3524.297457498420 418.118837619475 7059.108400052140 
      0.000000000000       1.000000000000 1099.692849735940 -3668.897465082055 342.912089544250 6547.334330622318 
58 59 
56 57 
57 58 
54 55 
52 53 
51 52 
53 54 
55 56 
48 49 
47 48 
49 50 
46 47 
45 46 
50 51 
42 43 
40 41 
41 42 
39 40 
38 39 
43 44 
44 45 
35 36 
34 35 
32 33 
33 34 
31 32 
36 37 
37 38 
29 30 
27 28 
28 29 
25 26 
24 25 
26 27 
30 31 
22 23 
23 24 
21 22 
20 21 
18 19 
17 18 
19 20 
15 16 
13 14 
14 15 
11 12 
9 10 
8 9 
10 11 
12 13 
16 17 
5 6 
4 5 
6 7 
3 4 
1 2 
2 3 
7 8 
ZONE N=53, T="3, TR 0", E=52, F=FEPOINT, ET=LINESEG, SOLUTIONTIME=0.000000000000
      0.000000000000       1.000000000000 1099.692849735940 -3668.897465082055 342.912089544250 6547.334330622318 
      0.059966480000       0.998200400000 1261.371476386086 -3587.169071051403 458.940949826453 6803.754604446051 
      0.119717200000       0.992808000000 1476.081471882893 -3472.152317560849 649.760965355792 7095.060316751889 
      0.179037000000       0.983842300000 1810.421323357264 -3334.339286671454 789.396993009378 7491.026493900185 
      0.237712400000       0.971335600000 2169.616572725192 -3184.889185705434 929.444021233421 7866.569330106478 
      0.295532200000       0.955332700000 2579.367443021846 -3023.436037222558 1056.622966880104 8248.745777450753 
      0.352288400000       0.935891500000 3036.687605916055 -2852.400234813728 1169.542794585681 8631.476916172305 
      0.407776600000       0.913081700000 3539.934224065601 -2673.339307204564 1266.871619942177 9011.832731461600 
      0.461797200000       0.886985500000 4122.171971688773 -2481.970551878950 1340.692802678223 9410.845523810367 
      0.514155600000       0.857696900000 4728.473799287350 -2290.129801107597 1398.741366124365 9789.442749119426 
      0.564663600000       0.825321200000 5400.220561185414 -2091.927314397853 1432.873892616014 10174.259926522385 
      0.613139200000       0.789974900000 6139.295261171366 -1874.033887649559 1458.870902885732 10566.762072414824 