TITLE      =  Unstructured grid data
VARIABLES  =  "x0" "x1" "x2" "Phi"
ZONE   T="P1 ZONE0 Hexa", N=13748, E=11904, F=FEPOINT, ET=BRICK, SOLUTIONTIME=0
      0.300000000000      -0.000000000000      -0.025000000000 2.000000000000 
      0.161463226742      -0.000000000000      -0.025000000000 -257.432758853270 
      0.172380585543      -0.000000000000      -0.025000000000 -297.094087306439 
      0.182778070116      -0.000000000000      -0.025000000000 -146.445807639937 
      0.192680436376      -0.000000000000      -0.025000000000 56.736322683112 
      0.202111261385      -0.000000000000      -0.025000000000 49.008246085938 
      0.211092999489      -0.000000000000      -0.025000000000 28.052791277428 
      0.219647035779      -0.000000000000      -0.025000000000 13.316754935939 
      0.227793737007      -0.000000000000      -0.025000000000 -3.168027091085 
      0.235552500082      -0.000000000000      -0.025000000000 1.439455177304 
      0.242941798248      -0.000000000000      -0.025000000000 0.248943580578 
      0.249979225073      -0.000000000000      -0.025000000000 -0.163048704586 
      0.256681536335      -0.000000000000      -0.025000000000 0.084023014428 
      0.263064689917      -0.000000000000      -0.025000000000 -0.074182004604 
      0.269143883806      -0.000000000000      -0.025000000000 0.064209327610 
      0.274933592271      -0.000000000000      -0.025000000000 -0.057492945312 
      0.280447600333      -0.000000000000      -0.025000000000 0.036996591706 
      0.285699036582      -0.000000000000      -0.025000000000 -0.031178926489 
      0.290700404439      -0.000000000000      -0.025000000000 0.008058784678 
      0.295463611921      -0.000000000000      -0.025000000000 -0.022312797465 
      0.300000000000      -0.000000000000      -0.040000000000 2.000000000000 
      0.172380585543      -0.000000000000      -0.040000000000 -0.014366026863 
      0.182778070116      -0.000000000000      -0.040000000000 -0.007053133041 
      0.192680436376      -0.000000000000      -0.040000000000 1.322789413272 
      0.202111261385      -0.000000000000      -0.040000000000 0.772833534695 
      0.211092999489      -0.000000000000      -0.040000000000 -0.945986331248 
      0.219647035779      -0.000000000000      -0.040000000000 -0.876536352908 
      0.227793737007      -0.000000000000      -0.040000000000 -0.779115071616 
      0.235552500082      -0.000000000000      -0.040000000000 -0.527844969101 
      0.242941798248      -0.000000000000      -0.040000000000 -0.271025279670 
      0.249979225073      -0.000000000000      -0.040000000000 -0.076150180198 
      0.256681536335      -0.000000000000      -0.040000000000 0.031138197689 
      0.263064689917      -0.000000000000      -0.040000000000 0.004544907382 
      0.269143883806      -0.000000000000      -0.040000000000 0.000507704904 
      0.274933592271      -0.000000000000      -0.040000000000 -0.000050363232 
      0.280447600333      -0.000000000000      -0.040000000000 0.000032018293 
      0.285699036582      -0.000000000000      -0.040000000000 0.000020981693 
      0.290700404439      -0.000000000000      -0.040000000000 -0.000000020106 
      0.295463611921      -0.000000000000      -0.040000000000 -0.000000062158 
      0.300000000000      -0.039876693349       0.003138363829 2.000000000000 
      0.300000000000      -0.040000000000       0.000000000000 2.000000000000 
      0.300000000000      -0.039876693349      -0.003138363829 2.000000000000 
      0.300000000000      -0.039507533624      -0.006257378602 2.000000000000 
      0.300000000000      -0.038894796816      -0.009337814554 2.000000000000 
      0.300000000000      -0.038042260652      -0.012360679775 2.000000000000 
      0.300000000000      -0.036955181300      -0.015307337295 2.000000000000 
      0.300000000000      -0.035640260967      -0.018159619990 2.000000000000 
      0.300000000000      -0.034105606574      -0.020899942589 2.000000000000 
      0.300000000000      -0.032360679775      -0.023511410092 2.000000000000 
      0.300000000000      -0.030416238624      -0.025977921933 2.000000000000 
      0.300000000000      -0.028284271247      -0.028284271247 2.000000000000 
      0.300000000000      -0.025977921933      -0.030416238624 2.000000000000 
      0.300000000000      -0.023511410092      -0.032360679775 2.000000000000 
      0.300000000000      -0.020899942589      -0.034105606574 2.000000000000 
      0.300000000000      -0.018159619990      -0.035640260967 2.000000000000 
      0.300000000000      -0.015307337295      -0.036955181300 2.000000000000 
      0.300000000000      -0.012360679775      -0.038042260652 2.000000000000 
      0.300000000000      -0.009337814554      -0.038894796816 2.000000000000 
      0.300000000000      -0.006257378602      -0.039507533624 2.000000000000 
      0.300000000000      -0.003138363829      -0.039876693349 2.000000000000 
      0.300000000000      -0.017677669530       0.017677669530 1.999999999999 
      0.300000000000      -0.019010149140       0.016236201208 1.999999999998 
      0.300000000000      -0.020225424859       0.014694631307 1.999999999998 
      0.300000000000      -0.021316004109       0.013062464118 1.999999999999 
      0.300000000000      -0.022275163105       0.011349762494 2.000000000000 
      0.300000000000      -0.023096988313       0.009567085809 2.000000000000 
      0.300000000000      -0.023776412907       0.007725424859 2.000000000000 
      0.300000000000      -0.024309248010       0.005836134096 2.000000000000 
      0.300000000000      -0.024692208515       0.003910861626 2.000000000000 
      0.300000000000      -0.024922933343       0.001961477393 2.000000000000 
      0.300000000000      -0.025000000000       0.000000000000 2.000000000000 
      0.300000000000      -0.024922933343      -0.001961477393 2.000000000000 
      0.300000000000      -0.024692208515      -0.003910861626 2.000000000000 
      0.300000000000      -0.024309248010      -0.005836134096 2.000000000000 
      0.300000000000      -0.023776412907      -0.007725424859 2.000000000000 
      0.300000000000      -0.023096988313      -0.009567085809 2.000000000000 
      0.300000000000      -0.022275163105      -0.011349762494 2.000000000000 
      0.300000000000      -0.021316004109      -0.013062464118 2.000000000000 
      0.300000000000      -0.020225424859      -0.014694631307 2.000000000000 
      0.300000000000      -0.019010149140      -0.016236201208 2.000000000000 
      0.300000000000      -0.017677669530      -0.017677669530 2.000000000000 
      0.300000000000      -0.016236201208      -0.019010149140 2.000000000000 
      0.300000000000      -0.014694631307      -0.020225424859 2.000000000000 
      0.300000000000      -0.013062464118      -0.021316004109 2.000000000000 
      0.300000000000      -0.011349762494      -0.022275163105 2.000000000000 
      0.300000000000      -0.009567085809      -0.023096988313 2.000000000000 
      0.300000000000      -0.007725424859      -0.023776412907 2.000000000000 
      0.300000000000      -0.005836134096      -0.024309248010 2.000000000000 
      0.300000000000      -0.003910861626      -0.024692208515 2.000000000000 
      0.300000000000      -0.001961477393      -0.024922933343 2.000000000000 
      0.300000000000       0.001961477393      -0.024922933343 2.000000000000 
      0.300000000000       0.003910861626      -0.024692208515 2.000000000000 
      0.300000000000       0.005836134096      -0.024309248010 2.000000000000 
      0.300000000000       0.007725424859      -0.023776412907 1.999999999983 
      0.300000000000       0.009567085809      -0.023096988313 2.000000010253 
      0.300000000000       0.011349762494      -0.022275163105 2.000000114432 
      0.300000000000       0.013062464118      -0.021316004109 2.000000143638 
      0.300000000000       0.014694631307      -0.020225424859 1.999999999985 
      0.300000000000       0.003138363829      -0.039876693349 2.000000000000 
      0.300000000000       0.006257378602      -0.039507533624 2.000000000000 
      0.300000000000       0.009337814554      -0.038894796816 2.000000000000 
      0.300000000000       0.012360679775      -0.038042260652 2.000000000000 
      0.300000000000       0.015307337295      -0.036955181300 2.000000000000 
      0.300000000000       0.018159619990      -0.035640260967 2.000000000000 
      0.300000000000       0.020899942589      -0.034105606574 2.000000000000 
      0.300000000000       0.023511410092      -0.032360679775 2.000000000000 
      0.300000000000      -0.000000000000      -0.026851084862 2.000000000000 
      0.300000000000      -0.000000000000      -0.028533889282 2.000000000000 
      0.300000000000      -0.000000000000      -0.030063711483 2.000000000000 
      0.300000000000      -0.000000000000      -0.031454458937 2.000000000000 
      0.300000000000      -0.000000000000      -0.032718774805 2.000000000000 
      0.300000000000      -0.000000000000      -0.033868152867 2.000000000000 
      0.300000000000      -0.000000000000      -0.034913042014 2.000000000000 
      0.300000000000      -0.000000000000      -0.035862941239 2.000000000000 
      0.300000000000      -0.000000000000      -0.036726485988 2.000000000000 
      0.300000000000      -0.000000000000      -0.037511526670 2.000000000000 
      0.300000000000      -0.000000000000      -0.038225200017 2.000000000000 
      0.300000000000      -0.000000000000      -0.038873993968 2.000000000000 
      0.300000000000      -0.000000000000      -0.039463806651 2.000000000000 
      0.295463611921      -0.000000000000      -0.026851084862 0.003258541605 
      0.295463611921      -0.000000000000      -0.028533889282 -0.003856680236 
      0.295463611921      -0.000000000000      -0.030063711482 -0.000319685971 
      0.295463611921      -0.000000000000      -0.031454458937 -0.013038704025 
      0.295463611921      -0.000000000000      -0.032718774805 -0.038670782540 
      0.295463611921      -0.000000000000      -0.033868152867 -0.033924077760 
      0.295463611921      -0.000000000000      -0.034913042014 -0.032792630263 
      0.295463611921      -0.000000000000      -0.035862941238 -0.081143163614 
      0.295463611921      -0.000000000000      -0.036726485988 0.005727288902 
      0.295463611921      -0.000000000000      -0.037511526670 2.333759055145 
      0.295463611921      -0.000000000000      -0.038225200016 3.775341800952 
      0.295463611921      -0.000000000000      -0.038873993968 3.801786761606 
      0.295463611921      -0.000000000000      -0.039463806651 2.287293953378 
      0.290700404439      -0.000000000000      -0.026851084862 -0.001640148700 
      0.290700404439      -0.000000000000      -0.028533889282 0.003840229182 
      0.290700404439      -0.000000000000      -0.030063711482 0.005045605684 
      0.290700404439      -0.000000000000      -0.031454458937 -0.064758760239 
      0.290700404439      -0.000000000000      -0.032718774805 -0.125425026701 
      0.290700404439      -0.000000000000      -0.033868152866 -0.182666169995 
      0.290700404439      -0.000000000000      -0.034913042013 -0.075990796925 
      0.290700404439      -0.000000000000      -0.035862941238 0.682526196326 
      0.290700404439      -0.000000000000      -0.036726485988 -5.182163805982 
      0.290700404439      -0.000000000000      -0.037511526669 -11.246757209271 
      0.290700404439      -0.000000000000      -0.038225200016 -7.552731376728 
      0.290700404439      -0.000000000000      -0.038873993968 -1.446439250794 
      0.290700404439      -0.000000000000      -0.039463806651 0.672357934415 
      0.285699036582      -0.000000000000      -0.026851084862 -0.017938820405 
      0.285699036582      -0.000000000000      -0.028533889282 0.057257477253 
      0.285699036582      -0.000000000000      -0.030063711482 -0.067228965790 
      0.285699036582      -0.000000000000      -0.031454458936 0.507024132709 
      0.285699036582      -0.000000000000      -0.032718774804 1.191012699661 
      0.285699036582      -0.000000000000      -0.033868152866 1.345251304924 
      0.285699036582      -0.000000000000      -0.034913042013 0.895220917257 
      0.285699036582      -0.000000000000      -0.035862941238 10.276617282114 
      0.285699036582      -0.000000000000      -0.036726485987 464.384720661801 
      0.285699036582      -0.000000000000      -0.037511526669 85.641125533252 
      0.285699036582      -0.000000000000      -0.038225200016 -584.170066269327 
      0.285699036582      -0.000000000000      -0.038873993968 -975.649507221822 
      0.285699036582      -0.000000000000      -0.039463806651 -758.556496427103 
      0.280447600333      -0.000000000000      -0.026851084862 0.088887928021 
      0.280447600333      -0.000000000000      -0.028533889281 -0.281942340504 
      0.280447600333      -0.000000000000      -0.030063711481 0.361983565189 
      0.280447600333      -0.000000000000      -0.031454458936 -2.146376728116 
      0.280447600333      -0.000000000000      -0.032718774804 -5.162885159765 
      0.280447600333      -0.000000000000      -0.033868152865 -5.300155723583 
      0.280447600333      -0.000000000000      -0.034913042013 -2.955260049501 
      0.280447600333      -0.000000000000      -0.035862941237 37.867086404110 
      0.280447600333      -0.000000000000      -0.036726485987 1105.978374148279 
      0.280447600333      -0.000000000000      -0.037511526669 1010.981580673973 
      0.280447600333      -0.000000000000      -0.038225200016 -428.757786586949 
      0.280447600333      -0.000000000000      -0.038873993968 -1559.363352716193 
      0.280447600333      -0.000000000000      -0.039463806651 -1185.370353112310 
      0.274933592271      -0.000000000000      -0.026851084862 -0.285901722561 
      0.274933592271      -0.000000000000      -0.028533889281 0.938037604764 
      0.274933592271      -0.000000000000      -0.030063711481 -0.980847463048 
      0.274933592271      -0.000000000000      -0.031454458935 3.489807687394 
      0.274933592271      -0.000000000000      -0.032718774803 9.553500926941 
      0.274933592271      -0.000000000000      -0.033868152865 8.542692590963 
      0.274933592271      -0.000000000000      -0.034913042012 3.965039318465 
      0.274933592271      -0.000000000000      -0.035862941237 22.493504926986 
      0.274933592271      -0.000000000000      -0.036726485987 1230.355475317036 
      0.274933592271      -0.000000000000      -0.037511526669 3349.427171066585 
      0.274933592271      -0.000000000000      -0.038225200016 3205.272175833647 
      0.274933592271      -0.000000000000      -0.038873993967 2863.770764513926 
      0.274933592271      -0.000000000000      -0.039463806651 1799.906347065716 
      0.269143883806      -0.000000000000      -0.026851084861 0.673425613812 
      0.269143883806      -0.000000000000      -0.028533889281 -2.162680596471 
      0.269143883806      -0.000000000000      -0.030063711481 2.832453788063 
      0.269143883806      -0.000000000000      -0.031454458935 -14.564362629883 
      0.269143883806      -0.000000000000      -0.032718774803 -36.732952462715 
      0.269143883806      -0.000000000000      -0.033868152864 -33.998863598840 
      0.269143883806      -0.000000000000      -0.034913042012 -29.846637786921 
      0.269143883806      -0.000000000000      -0.035862941237 -63.729087894603 
      0.269143883806      -0.000000000000      -0.036726485986 1136.155268178835 
      0.269143883806      -0.000000000000      -0.037511526668 5059.561537917994 
      0.269143883806      -0.000000000000      -0.038225200015 7168.989602512243 
      0.269143883806      -0.000000000000      -0.038873993967 -15044.504303359257 
      0.269143883806      -0.000000000000      -0.039463806651 -18330.367084005065 
      0.263064689917      -0.000000000000      -0.026851084861 -1.334039898635 
      0.263064689917      -0.000000000000      -0.028533889281 4.606113568871 
      0.263064689917      -0.000000000000      -0.030063711480 -4.990070499638 
      0.263064689917      -0.000000000000      -0.031454458935 -0.350857271788 
      0.263064689917      -0.000000000000      -0.032718774802 11.148276632001 
      0.263064689917      -0.000000000000      -0.033868152864 -6.499557799215 
      0.263064689917      -0.000000000000      -0.034913042011 4.662762141033 
      0.263064689917      -0.000000000000      -0.035862941236 413.918903519565 
      0.263064689917      -0.000000000000      -0.036726485986 7183.906936632777 
      0.263064689917      -0.000000000000      -0.037511526668 -108692.111434837687 
      0.263064689917      -0.000000000000      -0.038225200015 -191368.051199139212 
      0.263064689917      -0.000000000000      -0.038873993967 -241942.800789720699 
      0.263064689917      -0.000000000000      -0.039463806651 -165894.263957972085 
      0.256681536335      -0.000000000000      -0.026851084861 2.029330059009 
      0.256681536335      -0.000000000000      -0.028533889280 -6.897243062493 
      0.256681536335      -0.000000000000      -0.030063711480 8.932890859327 
      0.256681536335      -0.000000000000      -0.031454458934 -59.117548632317 
      0.256681536335      -0.000000000000      -0.032718774802 -147.780651701060 
      0.256681536335      -0.000000000000      -0.033868152863 -127.584251535190 
      0.256681536335      -0.000000000000      -0.034913042011 -177.260218553169 
      0.256681536335      -0.000000000000      -0.035862941236 -946.014241542090 
      0.256681536335      -0.000000000000      -0.036726485986 12171.724773202028 
      0.256681536335      -0.000000000000      -0.037511526668 -112440.900171938105 
      0.256681536335      -0.000000000000      -0.038225200015 -347318.519261817506 
      0.256681536335      -0.000000000000      -0.038873993967 -1370866.480135293910 
      0.256681536335      -0.000000000000      -0.039463806651 -1148365.353704049252 
      0.249979225073      -0.000000000000      -0.026851084861 -3.159403825227 
      0.249979225073      -0.000000000000      -0.028533889280 11.435361722120 
      0.249979225073      -0.000000000000      -0.030063711479 -15.263337576830 
      0.249979225073      -0.000000000000      -0.031454458933 -81.470050592049 
      0.249979225073      -0.000000000000      -0.032718774801 -135.801038115309 
      0.249979225073      -0.000000000000      -0.033868152863 -236.768423223393 
      0.249979225073      -0.000000000000      -0.034913042010 12.243209209388 
      0.249979225073      -0.000000000000      -0.035862941235 951.324617335326 
      0.249979225073      -0.000000000000      -0.036726485985 -196616.738425691030 
      0.249979225073      -0.000000000000      -0.037511526667 2585479.975767007563 
      0.249979225073      -0.000000000000      -0.038225200014 4496409.955445099622 
      0.249979225073      -0.000000000000      -0.038873993967 4429139.138746136799 
      0.249979225073      -0.000000000000      -0.039463806651 2713257.858317684382 
      0.242941798248      -0.000000000000      -0.026851084860 4.711634198101 
      0.242941798248      -0.000000000000      -0.028533889279 -15.894276243559 
      0.242941798248      -0.000000000000      -0.030063711479 11.148706665053 
      0.242941798248      -0.000000000000      -0.031454458933 -248.391817796188 
      0.242941798248      -0.000000000000      -0.032718774801 -575.278109957392 
      0.242941798248      -0.000000000000      -0.033868152862 -529.029765753689 
      0.242941798248      -0.000000000000      -0.034913042010 -878.906564714456 
      0.242941798248      -0.000000000000      -0.035862941235 -8031.084378760705 
      0.242941798248      -0.000000000000      -0.036726485985 -462416.020196522528 
      0.242941798248      -0.000000000000      -0.037511526667 3479895.346465378068 
      0.242941798248      -0.000000000000      -0.038225200014 9078519.911888958886 
      0.242941798248      -0.000000000000      -0.038873993967 15261351.636640038341 
      0.242941798248      -0.000000000000      -0.039463806651 10111997.436571583152 
      0.235552500082      -0.000000000000      -0.026851084860 -22.301367930691 
      0.235552500082      -0.000000000000      -0.028533889279 64.649771800306 
      0.235552500082      -0.000000000000      -0.030063711478 -67.954630062633 
      0.235552500082      -0.000000000000      -0.031454458932 -329.243671581397 
      0.235552500082      -0.000000000000      -0.032718774800 -483.617335300611 
      0.235552500082      -0.000000000000      -0.033868152862 -831.894098480150 
      0.235552500082      -0.000000000000      -0.034913042009 -263.803359622155 
      0.235552500082      -0.000000000000      -0.035862941234 6583.746062433820 
      0.235552500082      -0.000000000000      -0.036726485984 -508959.028317120334 
      0.235552500082      -0.000000000000      -0.037511526666 1940375.925251636421 
      0.235552500082      -0.000000000000      -0.038225200014 8898960.945993110538 
      0.235552500082      -0.000000000000      -0.038873993966 26038216.202019780874 
      0.235552500082      -0.000000000000      -0.039463806651 19587468.819115962833 
      0.227793737007      -0.000000000000      -0.026851084860 37.578353086335 
      0.227793737007      -0.000000000000      -0.028533889279 -142.960598221146 
      0.227793737007      -0.000000000000      -0.030063711478 109.785952314525 
      0.227793737007      -0.000000000000      -0.031454458932 -2399.987674721429 
      0.227793737007      -0.000000000000      -0.032718774799 -5193.188609277183 
      0.227793737007      -0.000000000000      -0.033868152861 -5077.828379373258 
      0.227793737007      -0.000000000000      -0.034913042008 -5921.054606349636 
      0.227793737007      -0.000000000000      -0.035862941233 -15795.469871344805 
      0.227793737007      -0.000000000000      -0.036726485984 -457991.359478004451 
      0.227793737007      -0.000000000000      -0.037511526666 1924478.264411793556 
      0.227793737007      -0.000000000000      -0.038225200014 8740123.678958889097 
      0.227793737007      -0.000000000000      -0.038873993966 35620613.817305147648 
      0.227793737007      -0.000000000000      -0.039463806650 29238857.251115608960 
      0.219647035779      -0.000000000000      -0.026851084860 -73.574128760218 
      0.219647035779      -0.000000000000      -0.028533889278 -11.051510738474 
      0.219647035779      -0.000000000000      -0.030063711477 -435.155687049796 
      0.219647035779      -0.000000000000      -0.031454458931 -4442.346143830751 
      0.219647035779      -0.000000000000      -0.032718774799 -9076.072586270569 
      0.219647035779      -0.000000000000      -0.033868152861 -10281.605782312812 
      0.219647035779      -0.000000000000      -0.034913042008 -10553.275436733344 
      0.219647035779      -0.000000000000      -0.035862941233 1979.657523374042 
      0.219647035779      -0.000000000000      -0.036726485983 -356264.592622612196 
      0.219647035779      -0.000000000000      -0.037511526665 -13950.502004136157 
      0.219647035779      -0.000000000000      -0.038225200013 5490032.654626311734 
      0.219647035779      -0.000000000000      -0.038873993966 38211480.526107534766 
      0.219647035779      -0.000000000000      -0.039463806650 33059458.882422894239 
      0.211092999489      -0.000000000000      -0.026851084859 -331.427199407441 
      0.211092999489      -0.000000000000      -0.028533889278 -437.530486116044 
      0.211092999489      -0.000000000000      -0.030063711477 -758.052516001634 
      0.211092999489      -0.000000000000      -0.031454458931 -9435.091487599064 
      0.211092999489      -0.000000000000      -0.032718774798 -18739.385370230892 
      0.211092999489      -0.000000000000      -0.033868152860 -25192.311289368459 
      0.211092999489      -0.000000000000      -0.034913042007 -33370.393323769516 
      0.211092999489      -0.000000000000      -0.035862941232 -55506.338130126474 
      0.211092999489      -0.000000000000      -0.036726485983 -160281.981852407567 
      0.211092999489      -0.000000000000      -0.037511526665 5556765.303665932268 
      0.211092999489      -0.000000000000      -0.038225200013 6688259.146115755662 
      0.211092999489      -0.000000000000      -0.038873993966 36713748.751843936741 
      0.211092999489      -0.000000000000      -0.039463806650 35689508.763327561319 
      0.202111261385      -0.000000000000      -0.026851084859 -427.244375008386 
      0.202111261385      -0.000000000000      -0.028533889277 -1292.444625783832 
      0.202111261385      -0.000000000000      -0.030063711476 -835.325896390136 
      0.202111261385      -0.000000000000      -0.031454458930 -12693.874011011503 
      0.202111261385      -0.000000000000      -0.032718774797 -30214.621920563739 
      0.202111261385      -0.000000000000      -0.033868152859 -30399.345518758902 
      0.202111261385      -0.000000000000      -0.034913042006 -31255.375294022706 
      0.202111261385      -0.000000000000      -0.035862941232 -99055.746438068236 
      0.202111261385      -0.000000000000      -0.036726485982 -7364.340798058925 
      0.202111261385      -0.000000000000      -0.037511526665 13868973.487712446600 
      0.202111261385      -0.000000000000      -0.038225200013 20432376.401826579124 
      0.202111261385      -0.000000000000      -0.038873993966 -18674736.188054151833 
      0.202111261385      -0.000000000000      -0.039463806650 -25311413.450920280069 
      0.192680436376      -0.000000000000      -0.026851084859 -853.213942266787 
      0.192680436376      -0.000000000000      -0.028533889277 -1905.324454537117 
      0.192680436376      -0.000000000000      -0.030063711475 -1547.246986590228 
      0.192680436376      -0.000000000000      -0.031454458929 -5921.991048085513 
      0.192680436376      -0.000000000000      -0.032718774796 -14862.788622840539 
      0.192680436376      -0.000000000000      -0.033868152858 -10274.260981397878 
      0.192680436376      -0.000000000000      -0.034913042006 -1377.543805792149 
      0.192680436376      -0.000000000000      -0.035862941231 -2091.311343383718 
      0.192680436376      -0.000000000000      -0.036726485982 -1763.592695639133 
      0.192680436376      -0.000000000000      -0.037511526664 7507329.143789109774 
      0.192680436376      -0.000000000000      -0.038225200012 15473148.333441574126 
      0.192680436376      -0.000000000000      -0.038873993965 -38276232.269575729966 
      0.192680436376      -0.000000000000      -0.039463806650 -46224456.250725671649 
      0.182778070116      -0.000000000000      -0.026851084859 231.614267735126 
      0.182778070116      -0.000000000000      -0.028533889276 1475.117202757022 
      0.182778070116      -0.000000000000      -0.030063711475 1403.382805727242 
      0.182778070116      -0.000000000000      -0.031454458928 8719.138907828963 
      0.182778070116      -0.000000000000      -0.032718774796 10577.466742555547 
      0.182778070116      -0.000000000000      -0.033868152857 938.299343148593 
      0.182778070116      -0.000000000000      -0.034913042005 -4967.720368415637 
      0.182778070116      -0.000000000000      -0.035862941230 -7602.832602244692 
      0.182778070116      -0.000000000000      -0.036726485981 -9203.372935939868 
      0.182778070116      -0.000000000000      -0.037511526664 -3669.815941712153 
      0.182778070116      -0.000000000000      -0.038225200012 55326.027943133944 
      0.182778070116      -0.000000000000      -0.038873993965 -19589.249250503311 
      0.182778070116      -0.000000000000      -0.039463806650 -73393.808091767438 
      0.172380585543      -0.000000000000      -0.026851084858 983.999879856592 
      0.172380585543      -0.000000000000      -0.028533889276 5864.377451386673 
      0.172380585543      -0.000000000000      -0.030063711474 4429.642720217129 
      0.172380585543      -0.000000000000      -0.031454458927 19274.682038272502 
      0.172380585543      -0.000000000000      -0.032718774795 21320.650490070664 
      0.172380585543      -0.000000000000      -0.033868152857 1737.333989899552 
      0.172380585543      -0.000000000000      -0.034913042004 -7341.446743265082 
      0.172380585543      -0.000000000000      -0.035862941229 -10914.726260259580 
      0.172380585543      -0.000000000000      -0.036726485980 -14598.305857206704 
      0.172380585543      -0.000000000000      -0.037511526663 -4662.358094126332 
      0.172380585543      -0.000000000000      -0.038225200011 112857.715682984213 
      0.172380585543      -0.000000000000      -0.038873993965 -41671.628813247698 
      0.172380585543      -0.000000000000      -0.039463806650 -149622.431152264500 
      0.161463226742      -0.000000000000      -0.026851084858 -617.956943674986 
      0.300000000000       0.015782671689      -0.021722983972 1.999999999982 
      0.300000000000       0.016771799309      -0.023084401348 1.999999999976 
      0.300000000000       0.017671006236      -0.024322053507 1.999999999987 
      0.300000000000       0.018488467079      -0.025447191833 2.000000000000 
      0.300000000000       0.019231613301      -0.026470044857 2.000000000000 
      0.300000000000       0.019907200775      -0.027399911241 2.000000000001 
      0.300000000000       0.020521371206      -0.028245244318 2.000000000001 
      0.300000000000       0.021079707961      -0.029013728934 2.000000000000 
      0.300000000000       0.021587286830      -0.029712351311 2.000000000000 
      0.300000000000       0.022048722166      -0.030347462563 2.000000000000 
      0.300000000000       0.022468208834      -0.030924836429 2.000000000000 
      0.300000000000       0.022849560351      -0.031449721761 2.000000000000 
      0.300000000000       0.023196243549      -0.031926890245 2.000000000000 