TITLE      =  Unstructured grid data
VARIABLES  =  "x0" "x1" "x2" "Phi"
ZONE   T="P6 ZONE0 Hexa", N=14896, E=13076, F=FEPOINT, ET=BRICK, SOLUTIONTIME=0
      0.000000000000       0.000000000000       0.040000000000 0.999999975326 
      0.004536388079       0.000000000000       0.040000000000 10.927565421252 
      0.009299595561       0.000000000000       0.040000000000 -10.077586314610 
      0.014300963418       0.000000000000       0.040000000000 -1.986016955345 
      0.019552399667       0.000000000000       0.040000000000 17.980843965865 
      0.025066407729       0.000000000000       0.040000000000 -16.455509527318 
      0.030856116194       0.000000000000       0.040000000000 5.851334137682 
      0.036935310083       0.000000000000       0.040000000000 0.721357073932 
      0.043318463665       0.000000000000       0.040000000000 -3.837050060731 
      0.050020774927       0.000000000000       0.040000000000 3.996488619264 
      0.057058201752       0.000000000000       0.040000000000 -1.909860005924 
      0.064447499918       0.000000000000       0.040000000000 1.798413930313 
      0.072206262993       0.000000000000       0.040000000000 0.324852440829 
      0.080352964221       0.000000000000       0.040000000000 1.371037000017 
      0.088907000511       0.000000000000       0.040000000000 3.708576692328 
      0.097888738615       0.000000000000       0.040000000000 19.825889454936 
      0.107319563624       0.000000000000       0.040000000000 102.513676332552 
      0.117221929884       0.000000000000       0.040000000000 238.064063261758 
      0.127619414457       0.000000000000       0.040000000000 204.602696352697 
      0.138536773258       0.000000000000       0.040000000000 50.723585984320 
      0.150000000000       0.000000000000       0.040000000000 -0.117208442776 
      0.161463226742       0.000000000000       0.040000000000 -0.166099627097 
      0.000000000000       0.000000000000       0.025000000000 1.000000000002 
      0.150000000000       0.000000000000       0.025000000000 20.530607851908 
      0.138536773258       0.000000000000       0.025000000000 -0.685302348988 
      0.127619414457       0.000000000000       0.025000000000 -3.010139108843 
      0.117221929884       0.000000000000       0.025000000000 1063.581097620028 
      0.107319563624       0.000000000000       0.025000000000 5242.530591651947 
      0.097888738615       0.000000000000       0.025000000000 6750.414182610672 
      0.088907000511       0.000000000000       0.025000000000 4485.429450840172 
      0.080352964221       0.000000000000       0.025000000000 1055.933962758837 
      0.072206262993       0.000000000000       0.025000000000 415.185744668426 
      0.064447499918       0.000000000000       0.025000000000 1435.495626331703 
      0.057058201752       0.000000000000       0.025000000000 453.152143614158 
      0.050020774927       0.000000000000       0.025000000000 210.648631667156 
      0.043318463665       0.000000000000       0.025000000000 180.311575880864 
      0.036935310083       0.000000000000       0.025000000000 95.376694622222 
      0.030856116194       0.000000000000       0.025000000000 6.620859064845 
      0.025066407729       0.000000000000       0.025000000000 3.230191454142 
      0.019552399667       0.000000000000       0.025000000000 -0.439011983390 
      0.014300963418       0.000000000000       0.025000000000 0.161051184109 
      0.009299595561       0.000000000000       0.025000000000 -1.119439017263 
      0.004536388079       0.000000000000       0.025000000000 -0.962405026017 
      0.000000000000      -0.003138363829       0.039876693349 1.000000000001 
      0.000000000000      -0.006257378602       0.039507533624 1.000000000000 
      0.000000000000      -0.009337814554       0.038894796816 0.999999999923 
      0.000000000000      -0.012360679775       0.038042260652 0.999999997327 
      0.000000000000      -0.015307337295       0.036955181300 0.999999942913 
      0.000000000000      -0.018159619990       0.035640260967 0.999999365514 
      0.000000000000      -0.020899942589       0.034105606574 0.999994784750 
      0.000000000000      -0.023511410092       0.032360679775 0.999979332923 
      0.000000000000      -0.025977921933       0.030416238624 0.999907400313 
      0.000000000000      -0.028284271247       0.028284271247 0.999743565972 
      0.000000000000      -0.030416238624       0.025977921933 0.994856064888 
      0.000000000000      -0.032360679775       0.023511410092 0.988085087169 
      0.000000000000      -0.034105606574       0.020899942589 0.993780864887 
      0.000000000000      -0.035640260967       0.018159619990 1.001866079692 
      0.000000000000      -0.036955181300       0.015307337295 1.001800136430 
      0.000000000000      -0.038042260652       0.012360679775 1.012734576012 
      0.000000000000      -0.038894796816       0.009337814554 1.007259482139 
      0.000000000000      -0.039507533624       0.006257378602 0.996684054146 
      0.000000000000      -0.039876693349       0.003138363829 1.005149264645 
      0.000000000000      -0.040000000000       0.000000000000 1.007143915442 
      0.000000000000      -0.039876693349      -0.003138363829 1.010738300494 
      0.000000000000      -0.039507533624      -0.006257378602 1.014410211326 
      0.000000000000      -0.038894796816      -0.009337814554 1.040122402090 
      0.000000000000      -0.038042260652      -0.012360679775 1.048513126319 
      0.000000000000      -0.036955181300      -0.015307337295 0.989485414117 
      0.000000000000      -0.035640260967      -0.018159619990 0.974821206797 
      0.000000000000      -0.034105606574      -0.020899942589 0.999349683887 
      0.000000000000      -0.032360679775      -0.023511410092 0.999139681678 
      0.000000000000      -0.030416238624      -0.025977921933 1.000676798358 
      0.000000000000      -0.028284271247      -0.028284271247 0.999997244711 
      0.000000000000      -0.025977921933      -0.030416238624 0.999997513936 
      0.000000000000      -0.001961477393       0.024922933343 1.000000000000 
      0.000000000000      -0.003910861626       0.024692208515 1.000000000000 
      0.000000000000      -0.005836134096       0.024309248010 1.000000000000 
      0.000000000000      -0.007725424859       0.023776412907 1.000000000000 
      0.000000000000      -0.009567085809       0.023096988313 1.000000000001 
      0.000000000000      -0.011349762494       0.022275163105 1.000000000004 
      0.000000000000      -0.013062464118       0.021316004109 1.000000000023 
      0.000000000000      -0.014694631307       0.020225424859 1.000000000071 
      0.000000000000      -0.016236201208       0.019010149140 1.000000000155 
      0.000000000000      -0.017677669530       0.017677669530 1.000000000371 
      0.000000000000      -0.019010149140       0.016236201208 1.000000000579 
      0.000000000000      -0.020225424859       0.014694631307 1.000000000678 
      0.000000000000      -0.021316004109       0.013062464118 1.000000001448 
      0.000000000000      -0.022275163105       0.011349762494 1.000000001642 
      0.000000000000      -0.023096988313       0.009567085809 1.000000002608 
      0.000000000000      -0.023776412907       0.007725424859 1.000000001644 
      0.000000000000      -0.024309248010       0.005836134096 1.000000002844 
      0.000000000000      -0.024692208515       0.003910861626 1.000000001628 
      0.000000000000      -0.024922933343       0.001961477393 1.000000003098 
      0.000000000000      -0.025000000000       0.000000000000 1.000000000901 
      0.000000000000      -0.024922933343      -0.001961477393 1.000000004180 
      0.000000000000      -0.024692208515      -0.003910861626 0.999999996888 
      0.000000000000      -0.024309248010      -0.005836134096 1.000000002903 
      0.000000000000      -0.023776412907      -0.007725424859 0.999999980904 
      0.000000000000      -0.023096988313      -0.009567085809 0.999999977776 
      0.000000000000      -0.022275163105      -0.011349762494 0.999999917301 
      0.000000000000      -0.021316004109      -0.013062464118 0.999999860782 
      0.000000000000      -0.020225424859      -0.014694631307 0.999999710504 
      0.000000000000      -0.019010149140      -0.016236201208 0.999999581778 
      0.000000000000      -0.017677669530      -0.017677669530 0.999999463544 
      0.000000000000      -0.016236201208      -0.019010149140 0.999999637948 
      0.000000000000      -0.014694631307      -0.020225424859 1.000000000000 
      0.000000000000      -0.013062464118      -0.021316004109 1.000000000000 
      0.000000000000      -0.011349762494      -0.022275163105 1.000000000000 
      0.000000000000       0.003910861626       0.024692208515 1.000000000007 
      0.000000000000       0.001961477393       0.024922933343 1.000000000005 
      0.000000000000       0.006257378602       0.039507533624 0.999984869409 
      0.000000000000       0.003138363829       0.039876693349 0.999992405943 
      0.000000000000       0.000000000000       0.026851084853 1.000000000765 
      0.000000000000       0.000000000000       0.028533889266 1.000000029092 
      0.000000000000       0.000000000000       0.030063711462 1.000001901902 
      0.000000000000       0.000000000000       0.031454458914 1.000101828146 
      0.000000000000       0.000000000000       0.032718774781 1.003382343720 
      0.000000000000       0.000000000000       0.033868152842 1.072560843723 
      0.000000000000       0.000000000000       0.034913041991 2.057635351656 
      0.000000000000       0.000000000000       0.035862941217 12.010783193285 
      0.000000000000       0.000000000000       0.036726485969 75.438341633810 
      0.000000000000       0.000000000000       0.037511526654 336.943710565009 
      0.000000000000       0.000000000000       0.038225200004 544.635281331483 
      0.000000000000       0.000000000000       0.038873993960 258.286754148060 
      0.000000000000       0.000000000000       0.039463806647 -13.776527144374 
      0.150000000000       0.000000000000       0.026851084853 6.010630728185 
      0.138536773258       0.000000000000       0.026851084853 -1.872151219206 
      0.127619414457       0.000000000000       0.026851084853 1.012085962759 
      0.117221929884       0.000000000000       0.026851084853 638.205461452880 
      0.107319563624       0.000000000000       0.026851084853 -18305.631918684143 
      0.097888738615       0.000000000000       0.026851084853 -49861.713604181670 
      0.088907000511       0.000000000000       0.026851084853 -42861.291669264952 
      0.080352964221       0.000000000000       0.026851084853 -31777.916719311892 
      0.072206262993       0.000000000000       0.026851084853 -26928.756624694804 
      0.064447499918       0.000000000000       0.026851084853 -11665.491582039323 
      0.057058201752       0.000000000000       0.026851084853 -5493.136598957994 
      0.050020774927       0.000000000000       0.026851084853 -2176.731056036401 
      0.043318463665       0.000000000000       0.026851084853 -626.174876839259 
      0.036935310083       0.000000000000       0.026851084853 -175.325449713521 
      0.030856116194       0.000000000000       0.026851084853 138.279017199484 
      0.025066407729       0.000000000000       0.026851084853 -196.165987141374 
      0.019552399667       0.000000000000       0.026851084853 317.465794010619 
      0.014300963418       0.000000000000       0.026851084853 -351.980799228107 
      0.009299595561       0.000000000000       0.026851084853 768.857431888066 
      0.004536388079       0.000000000000       0.026851084853 799.157469897760 
      0.150000000000       0.000000000000       0.028533889266 -36.156100388667 
      0.138536773258       0.000000000000       0.028533889266 -7.481623128343 
      0.127619414457       0.000000000000       0.028533889266 17.440649131831 
      0.117221929884       0.000000000000       0.028533889266 1.813572776508 
      0.107319563624       0.000000000000       0.028533889266 -27708.705214784364 
      0.097888738615       0.000000000000       0.028533889266 -65289.178499840171 
      0.088907000511       0.000000000000       0.028533889266 -57035.977525008158 
      0.080352964221       0.000000000000       0.028533889266 -43700.930519338246 
      0.072206262993       0.000000000000       0.028533889266 -37297.823643016018 
      0.064447499918       0.000000000000       0.028533889266 -19885.153185041243 
      0.057058201752       0.000000000000       0.028533889266 -9283.083015534852 
      0.050020774927       0.000000000000       0.028533889266 -3074.003327906458 
      0.043318463665       0.000000000000       0.028533889266 -1659.723607927724 
      0.036935310083       0.000000000000       0.028533889266 1231.133083862344 
      0.030856116194       0.000000000000       0.028533889266 -2293.306823411675 
      0.025066407729       0.000000000000       0.028533889266 3723.749053231043 
      0.019552399667       0.000000000000       0.028533889266 -5485.056539096201 
      0.014300963418       0.000000000000       0.028533889266 6694.082926561977 
      0.009299595561       0.000000000000       0.028533889266 -14646.389829014535 
      0.004536388079       0.000000000000       0.028533889266 -14111.437446484790 
      0.150000000000       0.000000000000       0.030063711462 0.343042428100 
      0.138536773258       0.000000000000       0.030063711462 -8.048476180522 
      0.127619414457       0.000000000000       0.030063711462 53.145666275623 
      0.117221929884       0.000000000000       0.030063711462 -10.597887119302 
      0.107319563624       0.000000000000       0.030063711462 6209.581904822715 
      0.097888738615       0.000000000000       0.030063711462 6062.013241669404 
      0.088907000511       0.000000000000       0.030063711462 -1257.636168168996 
      0.080352964221       0.000000000000       0.030063711462 -5660.759877324486 
      0.072206262993       0.000000000000       0.030063711462 -7100.848122253541 
      0.064447499918       0.000000000000       0.030063711462 -4321.407302766716 
      0.057058201752       0.000000000000       0.030063711462 -694.213846813156 
      0.050020774927       0.000000000000       0.030063711462 -2631.792514806074 
      0.043318463665       0.000000000000       0.030063711462 5688.487174950506 
      0.036935310083       0.000000000000       0.030063711462 -10801.878921969621 
      0.030856116194       0.000000000000       0.030063711462 19917.788832801558 
      0.025066407729       0.000000000000       0.030063711462 -32308.893361865616 
      0.019552399667       0.000000000000       0.030063711462 50201.611221431987 
      0.014300963418       0.000000000000       0.030063711462 -63698.062785941227 
      0.009299595561       0.000000000000       0.030063711462 143527.792095098004 
      0.004536388079       0.000000000000       0.030063711462 129305.046236008289 
      0.138536773258       0.000000000000       0.031454458914 79.918052943565 
      0.127619414457       0.000000000000       0.031454458914 28.597569851919 
      0.117221929884       0.000000000000       0.031454458914 -1.485957080977 
      0.107319563624       0.000000000000       0.031454458914 10446.754362691820 
      0.097888738615       0.000000000000       0.031454458914 15622.437463930342 
      0.088907000511       0.000000000000       0.031454458914 8363.459446541194 
      0.080352964221       0.000000000000       0.031454458914 4668.235997773598 
      0.072206262993       0.000000000000       0.031454458914 2724.591382369940 
      0.064447499918       0.000000000000       0.031454458914 3087.816635543365 
      0.057058201752       0.000000000000       0.031454458914 -2738.499142234963 
      0.050020774927       0.000000000000       0.031454458914 12985.338329160038 
      0.043318463665       0.000000000000       0.031454458914 -28330.433118244942 
      0.036935310083       0.000000000000       0.031454458914 60473.318434238485 
      0.030856116194       0.000000000000       0.031454458914 -113038.369539063584 
      0.025066407729       0.000000000000       0.031454458914 191050.463490357623 
      0.019552399667       0.000000000000       0.031454458914 -309857.639464439300 
      0.014300963418       0.000000000000       0.031454458914 406192.317304115626 
      0.009299595561       0.000000000000       0.031454458914 -944283.346165268100 
      0.004536388079       0.000000000000       0.031454458914 -807703.957617752138 
      0.138536773258       0.000000000000       0.032718774781 -397.274170263614 
      0.127619414457       0.000000000000       0.032718774781 24.621445655785 
      0.117221929884       0.000000000000       0.032718774781 -193.117435999385 
      0.107319563624       0.000000000000       0.032718774781 7896.282198171781 
      0.097888738615       0.000000000000       0.032718774781 9808.701097759902 
      0.088907000511       0.000000000000       0.032718774781 7600.571805556005 
      0.080352964221       0.000000000000       0.032718774781 7885.665267432736 
      0.072206262993       0.000000000000       0.032718774781 4553.127605486017 
      0.064447499918       0.000000000000       0.032718774781 -1270.534679122831 
      0.057058201752       0.000000000000       0.032718774781 16413.777103946333 
      0.050020774927       0.000000000000       0.032718774781 -43976.840018037481 
      0.043318463665       0.000000000000       0.032718774781 112748.699615641861 
      0.036935310083       0.000000000000       0.032718774781 -247055.009634974645 
      0.030856116194       0.000000000000       0.032718774781 478652.026081863791 
      0.025066407729       0.000000000000       0.032718774781 -855076.607286857325 
      0.019552399667       0.000000000000       0.032718774781 1418589.772902785102 
      0.014300963418       0.000000000000       0.032718774781 -1961450.243116659112 
      0.009299595561       0.000000000000       0.032718774781 4619825.151742416434 
      0.004536388079       0.000000000000       0.032718774781 3734033.931271356065 
      0.138536773258       0.000000000000       0.033868152842 7479.375652557583 
      0.127619414457       0.000000000000       0.033868152842 -5236.806148331319 
      0.117221929884       0.000000000000       0.033868152842 14351.398467515333 
      0.107319563624       0.000000000000       0.033868152842 1968.123413062148 
      0.097888738615       0.000000000000       0.033868152842 5957.148465281543 
      0.088907000511       0.000000000000       0.033868152842 -16173.475095037455 
      0.080352964221       0.000000000000       0.033868152842 -41781.904171319227 
      0.072206262993       0.000000000000       0.033868152842 -4846.276041022054 
      0.064447499918       0.000000000000       0.033868152842 10191.878110602447 
      0.057058201752       0.000000000000       0.033868152842 -38794.990248787115 
      0.050020774927       0.000000000000       0.033868152842 126860.198900837160 
      0.043318463665       0.000000000000       0.033868152842 -339620.107476461737 
      0.036935310083       0.000000000000       0.033868152842 773028.877922036336 
      0.030856116194       0.000000000000       0.033868152842 -1612522.456709968625 
      0.025066407729       0.000000000000       0.033868152842 2926087.097346862312 
      0.019552399667       0.000000000000       0.033868152842 -5219752.622660419904 
      0.014300963418       0.000000000000       0.033868152842 7294414.667530974373 
      0.009299595561       0.000000000000       0.033868152842 -17997976.705759882927 
      0.004536388079       0.000000000000       0.033868152842 -13785064.294568430632 
      0.150000000000       0.000000000000       0.034913041991 5439.784310012094 
      0.138536773258       0.000000000000       0.034913041991 7949.525377259965 
      0.127619414457       0.000000000000       0.034913041991 -2675.689842019862 
      0.117221929884       0.000000000000       0.034913041991 21659.615924138801 
      0.107319563624       0.000000000000       0.034913041991 14471.623616377456 
      0.097888738615       0.000000000000       0.034913041991 -21113.364611697110 
      0.088907000511       0.000000000000       0.034913041991 -57608.318963943413 
      0.080352964221       0.000000000000       0.034913041991 -53284.291415575222 
      0.072206262993       0.000000000000       0.034913041991 -4579.233597210496 
      0.064447499918       0.000000000000       0.034913041991 -16261.763302574898 
      0.057058201752       0.000000000000       0.034913041991 73995.438951192147 
      0.050020774927       0.000000000000       0.034913041991 -266072.707063499838 
      0.043318463665       0.000000000000       0.034913041991 762088.716860612272 
      0.036935310083       0.000000000000       0.034913041991 -1931676.849363711663 
      0.030856116194       0.000000000000       0.034913041991 4107197.071881758980 
      0.025066407729       0.000000000000       0.034913041991 -8324084.528494008817 
      0.019552399667       0.000000000000       0.034913041991 14668567.187817445025 
      0.014300963418       0.000000000000       0.034913041991 -22838555.090967215598 
      0.009299595561       0.000000000000       0.034913041991 55039401.030556835234 
      0.004536388079       0.000000000000       0.034913041991 40068859.047081582248 
      0.150000000000       0.000000000000       0.035862941217 -2610.260658627484 
      0.138536773258       0.000000000000       0.035862941217 -3580.453059184757 
      0.127619414457       0.000000000000       0.035862941217 3922.044341499529 
      0.117221929884       0.000000000000       0.035862941217 -446.194494456623 
      0.107319563624       0.000000000000       0.035862941217 -14735.896537328588 
      0.097888738615       0.000000000000       0.035862941217 17509.428506433709 
      0.088907000511       0.000000000000       0.035862941217 19522.257114955682 
      0.080352964221       0.000000000000       0.035862941217 -7406.147817651990 
      0.072206262993       0.000000000000       0.035862941217 281.147189224885 
      0.064447499918       0.000000000000       0.035862941217 2072.359557465452 
      0.057058201752       0.000000000000       0.035862941217 -59073.647834490162 
      0.050020774927       0.000000000000       0.035862941217 314940.585550799733 
      0.043318463665       0.000000000000       0.035862941217 -1178293.241272524232 
      0.036935310083       0.000000000000       0.035862941217 3270885.210573933087 
      0.030856116194       0.000000000000       0.035862941217 -8382033.212108558044 
      0.025066407729       0.000000000000       0.035862941217 16789953.492809683084 
      0.019552399667       0.000000000000       0.035862941217 -35640614.990258596838 
      0.014300963418       0.000000000000       0.035862941217 51571111.252277158201 
      0.009299595561       0.000000000000       0.035862941217 -144366244.801345080137 
      0.004536388079       0.000000000000       0.035862941217 -94204561.951517477632 
      0.150000000000       0.000000000000       0.036726485969 -1228.498585158676 
      0.138536773258       0.000000000000       0.036726485969 5514.976986110799 
      0.127619414457       0.000000000000       0.036726485969 16520.640110677963 
      0.117221929884       0.000000000000       0.036726485969 -2456.003170852385 
      0.107319563624       0.000000000000       0.036726485969 -42910.322143339901 
      0.097888738615       0.000000000000       0.036726485969 30895.410552261026 
      0.088907000511       0.000000000000       0.036726485969 56819.859599243689 
      0.080352964221       0.000000000000       0.036726485969 2918.608232576269 
      0.072206262993       0.000000000000       0.036726485969 -24635.854821432338 
      0.064447499918       0.000000000000       0.036726485969 89748.206803394976 
      0.057058201752       0.000000000000       0.036726485969 -213493.442931318918 
      0.050020774927       0.000000000000       0.036726485969 291882.699806188873 
      0.043318463665       0.000000000000       0.036726485969 131083.270664139127 
      0.036935310083       0.000000000000       0.036726485969 -2492174.330430387054 
      0.030856116194       0.000000000000       0.036726485969 8414735.619035188109 
      0.025066407729       0.000000000000       0.036726485969 -25404611.214660454541 
      0.019552399667       0.000000000000       0.036726485969 49725482.187452338636 
      0.014300963418       0.000000000000       0.036726485969 -103977979.847935006022 
      0.009299595561       0.000000000000       0.036726485969 237155966.372642874718 
      0.004536388079       0.000000000000       0.036726485969 146676908.282558292150 
      0.161463226742       0.000000000000       0.037511526654 13524.420639195450 
      0.150000000000       0.000000000000       0.037511526654 12926.501226387312 
      0.138536773258       0.000000000000       0.037511526654 19489.784934304029 
      0.127619414457       0.000000000000       0.037511526654 3943.796344626025 
      0.117221929884       0.000000000000       0.037511526654 7994.732126752546 
      0.107319563624       0.000000000000       0.037511526654 18169.467977956552 
      0.097888738615       0.000000000000       0.037511526654 2667.710859504552 
      0.088907000511       0.000000000000       0.037511526654 677.359759577995 
      0.080352964221       0.000000000000       0.037511526654 -12156.227851201167 
      0.072206262993       0.000000000000       0.037511526654 88944.214721128505 
      0.064447499918       0.000000000000       0.037511526654 -394179.998311576783 
      0.057058201752       0.000000000000       0.037511526654 1282850.963237862568 
      0.050020774927       0.000000000000       0.037511526654 -3157548.101150129456 
      0.043318463665       0.000000000000       0.037511526654 6413827.990076597780 
      0.036935310083       0.000000000000       0.037511526654 -9762223.006246892735 
      0.030856116194       0.000000000000       0.037511526654 10254741.002129251137 
      0.025066407729       0.000000000000       0.037511526654 -2316125.232930989005 
      0.019552399667       0.000000000000       0.037511526654 -39099385.962177753448 
      0.014300963418       0.000000000000       0.037511526654 71197806.323439061642 
      0.009299595561       0.000000000000       0.037511526654 -344539306.612990498543 
      0.004536388079       0.000000000000       0.037511526654 -142475636.536221265793 
      0.161463226742       0.000000000000       0.038225200004 53539.518282786266 
      0.150000000000       0.000000000000       0.038225200004 117104.769193754400 
      0.138536773258       0.000000000000       0.038225200004 -34095.997073746141 
      0.127619414457       0.000000000000       0.038225200004 509871.151167607342 
      0.117221929884       0.000000000000       0.038225200004 157828.004214538785 
      0.107319563624       0.000000000000       0.038225200004 1093615.441437914968 
      0.097888738615       0.000000000000       0.038225200004 1450250.016047915444 
      0.088907000511       0.000000000000       0.038225200004 839.617847629364 
      0.080352964221       0.000000000000       0.038225200004 12881.624852230225 
      0.072206262993       0.000000000000       0.038225200004 -135520.230856331211 
      0.064447499918       0.000000000000       0.038225200004 724144.597959250212 
      0.057058201752       0.000000000000       0.038225200004 -2623528.409720321186 
      0.050020774927       0.000000000000       0.038225200004 7784878.220064579509 
      0.043318463665       0.000000000000       0.038225200004 -17853828.666711170226 
      0.036935310083       0.000000000000       0.038225200004 38295967.733016803861 
      0.030856116194       0.000000000000       0.038225200004 -61831956.088346391916 
      0.025066407729       0.000000000000       0.038225200004 103779483.783338621259 
      0.019552399667       0.000000000000       0.038225200004 -119809048.978450253606 
      0.014300963418       0.000000000000       0.038225200004 130706876.732334971428 
      0.009299595561       0.000000000000       0.038225200004 -253832666.426347285509 
      0.004536388079       0.000000000000       0.038225200004 -311521066.665908634663 
      0.161463226742       0.000000000000       0.038873993960 -83516.905728443802 
      0.150000000000       0.000000000000       0.038873993960 -26822.706895131792 
      0.138536773258       0.000000000000       0.038873993960 -7732.231017781277 
      0.127619414457       0.000000000000       0.038873993960 317368.720529251383 
      0.117221929884       0.000000000000       0.038873993960 156898.552879513067 
      0.107319563624       0.000000000000       0.038873993960 748057.912863707053 
      0.097888738615       0.000000000000       0.038873993960 884333.888365357416 
      0.088907000511       0.000000000000       0.038873993960 -176000.318987549836 
      0.080352964221       0.000000000000       0.038873993960 963612.553953706054 
      0.072206262993       0.000000000000       0.038873993960 -3645746.012804314494 
      0.064447499918       0.000000000000       0.038873993960 9969255.744173180312 
      0.057058201752       0.000000000000       0.038873993960 -22337211.195531070232 
      0.050020774927       0.000000000000       0.038873993960 37614313.897031828761 
      0.043318463665       0.000000000000       0.038873993960 -52774448.582138024271 
      0.036935310083       0.000000000000       0.038873993960 43472313.406562678516 
      0.030856116194       0.000000000000       0.038873993960 -5504877.491645758040 
      0.025066407729       0.000000000000       0.038873993960 -72916090.274427697062 
      0.019552399667       0.000000000000       0.038873993960 161436143.232966274023 