TITLE      =  Unstructured grid data
VARIABLES  =  "x0" "x1" "x2" "Phi"
ZONE   T="P2 ZONE0 Hexa", N=17057, E=14978, F=FEPOINT, ET=BRICK, SOLUTIONTIME=0
      0.000000000000      -0.000000000000      -0.025000000000 1.000000000000 
      0.004536388079      -0.000000000000      -0.025000000000 -0.005083430568 
      0.009299595561      -0.000000000000      -0.025000000000 -0.034657375589 
      0.014300963418      -0.000000000000      -0.025000000000 -0.019486536693 
      0.019552399667      -0.000000000000      -0.025000000000 -0.003344196894 
      0.025066407729      -0.000000000000      -0.025000000000 -0.000254386969 
      0.030856116194      -0.000000000000      -0.025000000000 -0.038889168417 
      0.036935310083      -0.000000000000      -0.025000000000 -0.005266961740 
      0.043318463665      -0.000000000000      -0.025000000000 0.022574344378 
      0.050020774927      -0.000000000000      -0.025000000000 -0.050766124969 
      0.057058201752      -0.000000000000      -0.025000000000 -0.028906177690 
      0.064447499918      -0.000000000000      -0.025000000000 -0.123460867650 
      0.072206262993      -0.000000000000      -0.025000000000 -0.274215207745 
      0.080352964221      -0.000000000000      -0.025000000000 -0.522483958450 
      0.088907000511      -0.000000000000      -0.025000000000 -1.732129485963 
      0.097888738615      -0.000000000000      -0.025000000000 -2.432865637435 
      0.107319563624      -0.000000000000      -0.025000000000 -4.420810306646 
      0.117221929884      -0.000000000000      -0.025000000000 -14.627578599332 
      0.127619414457      -0.000000000000      -0.025000000000 -29.544063501483 
      0.138536773258      -0.000000000000      -0.025000000000 -55.652327725262 
      0.150000000000      -0.000000000000      -0.025000000000 -98.576512042917 
      0.161463226742      -0.000000000000      -0.025000000000 -191.052065601169 
      0.172380585543      -0.000000000000      -0.025000000000 -297.094087306439 
      0.182778070116      -0.000000000000      -0.025000000000 -146.445807639937 
      0.192680436376      -0.000000000000      -0.025000000000 56.736322683112 
      0.202111261385      -0.000000000000      -0.025000000000 46.833056292261 
      0.211092999489      -0.000000000000      -0.025000000000 6.123952232932 
      0.000000000000      -0.009567085809      -0.023096988313 1.000000000000 
      0.000000000000      -0.007725424859      -0.023776412907 1.000000000000 
      0.000000000000      -0.005836134096      -0.024309248010 1.000000000000 
      0.000000000000      -0.003910861626      -0.024692208515 1.000000000000 
      0.000000000000      -0.001961477393      -0.024922933343 1.000000000000 
      0.000000000000       0.001961477393      -0.024922933343 1.000000000000 
      0.000000000000       0.003910861626      -0.024692208515 1.000000000000 
      0.000000000000       0.005836134096      -0.024309248010 0.999999999895 
      0.000000000000       0.007725424859      -0.023776412907 0.999999999936 
      0.000000000000       0.009567085809      -0.023096988313 1.000000000307 
      0.000000000000       0.011349762494      -0.022275163105 1.000000000273 
      0.000000000000       0.013062464118      -0.021316004109 1.000000000457 
      0.000000000000       0.014694631307      -0.020225424859 1.000000000482 
      0.000000000000       0.016236201208      -0.019010149140 1.000000000932 
      0.000000000000       0.017677669530      -0.017677669530 1.000000000911 
      0.000000000000       0.019010149140      -0.016236201208 0.999999999087 
      0.000000000000       0.020225424859      -0.014694631307 0.999999999119 
      0.000000000000       0.021316004109      -0.013062464118 0.999999999189 
      0.000000000000       0.022275163105      -0.011349762494 0.999999999195 
      0.000000000000       0.023096988313      -0.009567085809 1.000000000368 
      0.000000000000       0.023776412907      -0.007725424859 1.000000000370 
      0.000000000000       0.024309248010      -0.005836134096 1.000000000000 
      0.000000000000       0.024692208515      -0.003910861626 1.000000000000 
      0.000000000000       0.024922933343      -0.001961477393 1.000000000000 
      0.000000000000       0.025000000000      -0.000000000000 1.000000000000 
      0.000000000000       0.024922933343       0.001961477393 1.000000000000 
      0.000000000000       0.024692208515       0.003910861626 1.000000000000 
      0.000000000000      -0.000000000000      -0.026851084853 1.000000000000 
      0.211092999489      -0.000000000000      -0.026851084859 54.870414869249 
      0.202111261385      -0.000000000000      -0.026851084859 122.946279794849 
      0.192680436376      -0.000000000000      -0.026851084859 295.986966464050 
      0.182778070116      -0.000000000000      -0.026851084859 -643.988407247233 
      0.172380585543      -0.000000000000      -0.026851084858 -1211.219853231330 
      0.161463226742      -0.000000000000      -0.026851084858 -529.887147621391 
      0.150000000000      -0.000000000000      -0.026851084858 -299.304416985770 
      0.138536773258      -0.000000000000      -0.026851084857 -145.560671394268 
      0.127619414457      -0.000000000000      -0.026851084857 -89.275606544047 
      0.117221929884      -0.000000000000      -0.026851084857 9571.866347619225 
      0.117221929884      -0.000000000000      -0.028533889273 47034.860511927429 
      0.107319563624      -0.000000000000      -0.026851084856 -182.475058225167 
      0.107319563624      -0.000000000000      -0.028533889272 -404.343452934032 
      0.097888738615      -0.000000000000      -0.026851084856 -7911.715699857060 
      0.097888738615      -0.000000000000      -0.028533889272 -15792.988634551955 
      0.088907000511      -0.000000000000      -0.026851084856 -22373.305547927401 
      0.088907000511      -0.000000000000      -0.028533889271 -44658.780804711416 
      0.080352964221      -0.000000000000      -0.026851084856 -19808.794395929188 
      0.080352964221      -0.000000000000      -0.028533889271 -39546.467250600894 
      0.072206262993      -0.000000000000      -0.026851084855 -3196.453004237144 
      0.072206262993      -0.000000000000      -0.028533889270 -6377.999611466359 
      0.064447499918      -0.000000000000      -0.026851084855 -2240.959702726038 
      0.064447499918      -0.000000000000      -0.028533889270 -4472.470130470416 
      0.057058201752      -0.000000000000      -0.026851084855 854.834531915711 
      0.057058201752      -0.000000000000      -0.028533889269 1705.580804835856 
      0.050020774927      -0.000000000000      -0.026851084854 687.054363707333 
      0.050020774927      -0.000000000000      -0.028533889269 1604.856084260060 
      0.043318463665      -0.000000000000      -0.026851084854 1671.469260334187 
      0.043318463665      -0.000000000000      -0.028533889269 4993.973809804475 
      0.036935310083      -0.000000000000      -0.026851084854 1360.571916341931 
      0.036935310083      -0.000000000000      -0.028533889268 4065.598486645059 
      0.030856116194      -0.000000000000      -0.026851084854 -89.962281301828 
      0.030856116194      -0.000000000000      -0.028533889268 -454.493162419912 
      0.025066407729      -0.000000000000      -0.026851084854 0.000840183945 
      0.019552399667      -0.000000000000      -0.026851084854 -0.015954837645 
      0.014300963418      -0.000000000000      -0.026851084853 -0.048422723493 
      0.009299595561      -0.000000000000      -0.026851084853 -0.079910847990 
      0.004536388079      -0.000000000000      -0.026851084853 -0.000841899824 
      0.000000000000      -0.002106711837      -0.026768311919 1.000000000000 
      0.000000000000       0.002238743149      -0.028445928809 1.000000014707 
      0.000000000000       0.004463683703      -0.028182589740 1.000000019080 
      0.000000000000       0.006661104162      -0.027745495635 1.000000021944 
      0.000000000000       0.008817456699      -0.027137341322 1.000000024407 
      0.000000000000       0.010919446683      -0.026361876276 1.000000017550 
      0.000000000000       0.012954114648      -0.025423881497 1.000000003361 
      0.000000000000       0.014908916187      -0.024329140034 1.000000000000 
      0.000000000000       0.016771799301      -0.023084401332 1.000000000000 
      0.000000000000       0.018531278695      -0.021697339620 1.000000000000 
      0.000000000000       0.020176506594      -0.020176506594 1.000000000000 
      0.000000000000       0.021697339620      -0.018531278695 1.000000000000 
      0.000000000000       0.023084401332      -0.016771799301 1.000000000000 
      0.000000000000       0.024329140034      -0.014908916187 1.000000000000 
      0.000000000000       0.025423881497      -0.012954114648 1.000000000000 
      0.000000000000       0.026361876276      -0.010919446683 1.000000000000 
      0.000000000000       0.027137341322      -0.008817456699 1.000000000000 
      0.000000000000       0.027745495635      -0.006661104162 1.000000000000 
      0.000000000000       0.028182589740      -0.004463683703 1.000000000001 
      0.000000000000       0.028445928809      -0.002238743149 1.000000000000 
      0.000000000000       0.028533889266      -0.000000000000 1.000000000000 
      0.000000000000       0.002106711837      -0.026768311919 1.000000004938 
      0.000000000000       0.004200435095      -0.026520503442 1.000000009591 
      0.000000000000       0.006268261273      -0.026109187241 1.000000011029 
      0.000000000000       0.008297441537      -0.025536899219 1.000000012268 
      0.000000000000       0.010275465314      -0.024807167721 1.000000008823 
      0.000000000000       0.012190137431      -0.023924491786 1.000000001692 
      0.000000000000       0.014029653297      -0.022894313402 1.000000000000 
      0.000000000000       0.015782671685      -0.021722983963 1.000000000000 
      0.000000000000       0.017438384653      -0.020417725105 1.000000000000 
      0.000000000000       0.018986584182      -0.018986584182 1.000000000000 
      0.000000000000       0.020417725105      -0.017438384653 1.000000000000 
      0.000000000000       0.021722983963      -0.015782671685 1.000000000000 
      0.000000000000       0.022894313402      -0.014029653297 1.000000000000 
      0.000000000000       0.023924491786      -0.012190137431 1.000000000000 
      0.000000000000       0.024807167721      -0.010275465314 1.000000000000 
      0.000000000000       0.025536899219      -0.008297441537 1.000000000000 
      0.000000000000       0.026109187241      -0.006268261273 1.000000000000 
      0.000000000000       0.026520503442      -0.004200435095 1.000000000000 
      0.000000000000       0.026768311919      -0.002106711837 1.000000000000 
      0.000000000000       0.026851084853      -0.000000000000 1.000000000000 
      0.000000000000       0.026768311919       0.002106711837 1.000000000000 
      0.107319563624      -0.024691360229       0.003916213736 -17441.665119678833 
      0.117221929884      -0.024691360229       0.003916213736 -7972.806442456835 
      0.127619414457      -0.024691360229       0.003916213736 -3612.649325986119 
      0.138536773258      -0.024691360229       0.003916213736 -4719.655737723502 
      0.150000000000      -0.024691360229       0.003916213736 21089.545369081596 
      0.161463226742      -0.024691360229       0.003916213736 2629.327061357355 
      0.172380585543      -0.024691360229       0.003916213736 -34980.428243372291 
      0.097888738615      -0.024923674434       0.001952038088 5842.153251774306 
      0.107319563624      -0.024923674434       0.001952038088 -3289.636878935934 
      0.117221929884      -0.024923674434       0.001952038088 -3521.049380788417 
      0.127619414457      -0.024923674434       0.001952038088 4986.590905522979 
      0.138536773258      -0.024923674434       0.001952038088 7564.023480738833 
      0.150000000000      -0.024923674434       0.001952038088 -16333.726837774488 
      0.161463226742      -0.024923674434       0.001952038088 -16239.532625534350 
      0.172380585543      -0.024923674434       0.001952038088 9632.178771664216 
      0.182778070116      -0.024923674434       0.001952038088 17931.827190253895 
      0.097888738615      -0.025000000000      -0.000000000000 2255.253970970923 
      0.107319563624      -0.025000000000      -0.000000000000 3812.856591844814 
      0.117221929884      -0.025000000000      -0.000000000000 3586.117617866828 
      0.127619414457      -0.025000000000      -0.000000000000 -10726.894468563452 
      0.138536773258      -0.025000000000       0.000000000000 -22748.655713356624 
      0.150000000000      -0.025000000000       0.000000000000 37917.734993374084 
      0.161463226742      -0.025000000000      -0.000000000000 62639.328371411597 
      0.172380585543      -0.025000000000      -0.000000000000 -5660.398627765908 
      0.182778070116      -0.025000000000      -0.000000000000 -38998.080586883836 
      0.097888738615      -0.024923674434      -0.001952038088 9038.856994464679 
      0.107319563624      -0.024923674434      -0.001952038088 4370.975917886354 
      0.117221929884      -0.024923674434      -0.001952038088 1673.626309169240 
      0.127619414457      -0.024923674434      -0.001952038088 -16396.134833479930 
      0.138536773258      -0.024923674434      -0.001952038088 -32979.774169235046 
      0.150000000000      -0.024923674434      -0.001952038088 65472.669890249075 
      0.161463226742      -0.024923674434      -0.001952038088 122147.627607195784 
      0.172380585543      -0.024923674434      -0.001952038088 3282.552801889833 
      0.182778070116      -0.024923674434      -0.001952038088 -76660.596508541581 
      0.088907000511      -0.024691360229      -0.003916213736 31397.856414626578 
      0.097888738615      -0.024691360229      -0.003916213736 10001.794687133384 
      0.107319563624      -0.024691360229      -0.003916213736 -448.867255101642 
      0.117221929884      -0.024691360229      -0.003916213736 -62.440577765338 
      0.127619414457      -0.024691360229      -0.003916213736 -247.871298930013 
      0.138536773258      -0.024691360229      -0.003916213736 5.733770608150 
      0.150000000000      -0.024691360229      -0.003916213736 37.952988427491 
      0.161463226742      -0.024691360229      -0.003916213736 41464.308194021607 
      0.172380585543      -0.024691360229      -0.003916213736 19984.196180048122 
      0.182778070116      -0.024691360229      -0.003916213736 -38208.329192635181 
      0.080352964221      -0.024307363863      -0.005843976562 79425.763712872824 
      0.088907000511      -0.024307363863      -0.005843976562 21749.367944944832 
      0.097888738615      -0.024307363863      -0.005843976562 -4100.884927873478 
      0.107319563624      -0.024307363863      -0.005843976562 1257.855047747447 
      0.117221929884      -0.024307363863      -0.005843976562 -460.806465106727 
      0.127619414457      -0.024307363863      -0.005843976562 -1558.061623178832 
      0.138536773258      -0.024307363863      -0.005843976562 2.664504204140 
      0.150000000000      -0.024307363863      -0.005843976562 9.972027715201 
      0.161463226742      -0.024307363863      -0.005843976562 65.206148066072 
      0.172380585543      -0.024307363863      -0.005843976562 -5001.817779219644 
      0.182778070116      -0.024307363863      -0.005843976562 -9887.352721884932 
      0.080352964221      -0.023779745916      -0.007715159375 -21727.979258107182 
      0.088907000511      -0.023779745916      -0.007715159375 -8910.378758890143 
      0.097888738615      -0.023779745916      -0.007715159375 3750.815759050649 
      0.107319563624      -0.023779745916      -0.007715159375 -226.452723770965 
      0.117221929884      -0.023779745916      -0.007715159375 -1835.472045469488 
      0.127619414457      -0.023779745916      -0.007715159375 -6.831302336494 
      0.138536773258      -0.023779745916      -0.007715159375 1.990532512915 
      0.150000000000      -0.023779745916      -0.007715159375 -14.637579784233 
      0.161463226742      -0.023779745916      -0.007715159375 16.623196705278 
      0.172380585543      -0.023779745916      -0.007715159375 20.306507702414 
      0.182778070116      -0.023779745916      -0.007715159375 -27.215877290898 
      0.080352964221      -0.023096988313      -0.009567085809 -71.718786422665 
      0.088907000511      -0.023096988313      -0.009567085809 4980.202682691412 
      0.097888738615      -0.023096988313      -0.009567085809 1187.558287062691 
      0.107319563624      -0.023096988313      -0.009567085809 -4240.554277529807 
      0.117221929884      -0.023096988313      -0.009567085809 -2.955804790553 
      0.127619414457      -0.023096988313      -0.009567085809 -3.187406543883 
      0.138536773258      -0.023096988313      -0.009567085809 -7.928862870592 
      0.150000000000      -0.023096988313      -0.009567085809 -4.491210549821 
      0.161463226742      -0.023096988313      -0.009567085809 -20.721528760056 
      0.172380585543      -0.023096988313      -0.009567085809 -13.105454459770 
      0.182778070116      -0.023096988313      -0.009567085809 18.891987976175 
      0.080352964221      -0.022270261104      -0.011359378080 -20391.971846742206 
      0.088907000511      -0.022270261104      -0.011359378080 -19068.343538014917 
      0.097888738615      -0.022270261104      -0.011359378080 -9038.933653419394 
      0.107319563624      -0.022270261104      -0.011359378080 -2.427512889789 
      0.117221929884      -0.022270261104      -0.011359378080 -2.927135677342 
      0.127619414457      -0.022270261104      -0.011359378080 -3.824273262374 
      0.138536773258      -0.022270261104      -0.011359378080 -3.485785018373 
      0.150000000000      -0.022270261104      -0.011359378080 -8.238414673945 
      0.161463226742      -0.022270261104      -0.011359378080 -7.266614227785 
      0.172380585543      -0.022270261104      -0.011359378080 -0.553022863845 
      0.182778070116      -0.022270261104      -0.011359378080 -2.913520218369 
      0.080352964221      -0.021320217276      -0.013055586364 -79833.819015203131 
      0.088907000511      -0.021320217276      -0.013055586364 -40794.239845822944 
      0.097888738615      -0.021320217276      -0.013055586364 -1.367345170790 
      0.107319563624      -0.021320217276      -0.013055586364 -1.626000479648 
      0.117221929884      -0.021320217276      -0.013055586364 -2.671690170680 
      0.127619414457      -0.021320217276      -0.013055586364 -1.265051284403 
      0.138536773258      -0.021320217276      -0.013055586364 2.422183799026 
      0.150000000000      -0.021320217276      -0.013055586364 -5.630766230984 
      0.161463226742      -0.021320217276      -0.013055586364 -5.653648994567 
      0.172380585543      -0.021320217276      -0.013055586364 7.139520128230 
      0.080352964221      -0.020228609544      -0.014690246965 -9.479987872570 
      0.088907000511      -0.020228609544      -0.014690246965 -3.328818090278 
      0.097888738615      -0.020228609544      -0.014690246965 -2.240230812105 
      0.107319563624      -0.020228609544      -0.014690246965 -1.482231692758 
      0.117221929884      -0.020228609544      -0.014690246965 -3.055616137091 
      0.127619414457      -0.020228609544      -0.014690246965 0.697381592828 
      0.138536773258      -0.020228609544      -0.014690246965 13.608286003350 
      0.004536388079      -0.009567085809      -0.023096988313 -0.039252161073 
      0.009299595561      -0.009567085809      -0.023096988313 -0.055733289130 
      0.014300963418      -0.009567085809      -0.023096988313 -0.326716505040 
      0.019552399667      -0.009567085809      -0.023096988313 -0.462885016005 
      0.025066407729      -0.009567085809      -0.023096988313 -0.912215913995 
      0.030856116194      -0.009567085809      -0.023096988313 -1.392542838484 
      0.036935310083      -0.009567085809      -0.023096988313 -1.851520754078 
      0.043318463665      -0.009567085809      -0.023096988313 -2.288362145075 
      0.050020774927      -0.009567085809      -0.023096988313 -3.078385765694 
      0.057058201752      -0.009567085809      -0.023096988313 -2.509354947336 
      0.064447499918      -0.009567085809      -0.023096988313 -2.162373700368 
      0.072206262993      -0.009567085809      -0.023096988313 0.851196691747 
      0.080352964221      -0.009567085809      -0.023096988313 6.335309588023 
      0.088907000511      -0.009567085809      -0.023096988313 19.092712208233 
      0.097888738615      -0.009567085809      -0.023096988313 48.252630866375 
      0.107319563624      -0.009567085809      -0.023096988313 86.947628190548 
      0.117221929884      -0.009567085809      -0.023096988313 188.280116716041 
      0.127619414457      -0.009567085809      -0.023096988313 70.395022681337 
      0.138536773258      -0.009567085809      -0.023096988313 -62.856243772966 
      0.150000000000      -0.009567085809      -0.023096988313 16.263651195778 
      0.161463226742      -0.009567085809      -0.023096988313 14.254612983605 
      0.004536388079      -0.007715159375      -0.023779745916 0.000851458609 
      0.009299595561      -0.007715159375      -0.023779745916 -0.034017794537 
      0.014300963418      -0.007715159375      -0.023779745916 -0.174530681777 
      0.019552399667      -0.007715159375      -0.023779745916 -0.359705316514 
      0.025066407729      -0.007715159375      -0.023779745916 -0.698402459056 
      0.030856116194      -0.007715159375      -0.023779745916 -1.070497366760 
      0.036935310083      -0.007715159375      -0.023779745916 -1.370680381029 
      0.043318463665      -0.007715159375      -0.023779745916 -1.657587180019 
      0.050020774927      -0.007715159375      -0.023779745916 -1.974715992894 
      0.057058201752      -0.007715159375      -0.023779745916 -1.755283997311 
      0.064447499918      -0.007715159375      -0.023779745916 -1.229570300350 
      0.072206262993      -0.007715159375      -0.023779745916 0.507155745240 
      0.080352964221      -0.007715159375      -0.023779745916 4.325765397480 
      0.088907000511      -0.007715159375      -0.023779745916 12.091249019054 
      0.097888738615      -0.007715159375      -0.023779745916 30.582198725440 
      0.107319563624      -0.007715159375      -0.023779745916 54.035256228872 
      0.117221929884      -0.007715159375      -0.023779745916 112.331250043136 
      0.127619414457      -0.007715159375      -0.023779745916 39.153869612577 
      0.138536773258      -0.007715159375      -0.023779745916 -26.205069486636 
      0.150000000000      -0.007715159375      -0.023779745916 9.188145192324 
      0.161463226742      -0.007715159375      -0.023779745916 4.917928825967 
      0.172380585543      -0.007715159375      -0.023779745916 -78.847257043195 
      0.182778070116      -0.007715159375      -0.023779745916 27.434223076854 
      0.192680436376      -0.007715159375      -0.023779745916 -54.922774377071 
      0.202111261385      -0.007715159375      -0.023779745916 -347.805038333516 
      0.004536388079      -0.005843976562      -0.024307363863 0.011464710588 
      0.009299595561      -0.005843976562      -0.024307363863 -0.023486924771 
      0.014300963418      -0.005843976562      -0.024307363863 -0.090148781033 
      0.019552399667      -0.005843976562      -0.024307363863 -0.179951833112 
      0.025066407729      -0.005843976562      -0.024307363863 -0.398253356631 
      0.030856116194      -0.005843976562      -0.024307363863 -0.483899407990 
      0.036935310083      -0.005843976562      -0.024307363863 -0.570023743991 
      0.043318463665      -0.005843976562      -0.024307363863 -0.576208867710 
      0.050020774927      -0.005843976562      -0.024307363863 -0.525600344721 
      0.057058201752      -0.005843976562      -0.024307363863 -0.496111954890 
      0.064447499918      -0.005843976562      -0.024307363863 -0.142947377948 
      0.072206262993      -0.005843976562      -0.024307363863 0.324175690415 
      0.080352964221      -0.005843976562      -0.024307363863 1.597481575182 
      0.088907000511      -0.005843976562      -0.024307363863 3.779933225112 
      0.097888738615      -0.005843976562      -0.024307363863 8.596037722295 
      0.107319563624      -0.005843976562      -0.024307363863 14.390164994297 
      0.117221929884      -0.005843976562      -0.024307363863 22.982071284378 
      0.127619414457      -0.005843976562      -0.024307363863 9.457698152097 
      0.138536773258      -0.005843976562      -0.024307363863 4.355006959220 
      0.150000000000      -0.005843976562      -0.024307363863 19.017899366861 
      0.161463226742      -0.005843976562      -0.024307363863 5.658946855104 
      0.172380585543      -0.005843976562      -0.024307363863 67.222031820292 
      0.182778070116      -0.005843976562      -0.024307363863 13.753988953603 
      0.192680436376      -0.005843976562      -0.024307363863 -14.357998443837 
      0.202111261385      -0.005843976562      -0.024307363863 70.627013252746 
      0.004536388079      -0.003916213736      -0.024691360229 0.004737443278 
      0.009299595561      -0.003916213736      -0.024691360229 -0.046426176249 
      0.014300963418      -0.003916213736      -0.024691360229 -0.091018437482 
      0.019552399667      -0.003916213736      -0.024691360229 -0.066385959196 
      0.025066407729      -0.003916213736      -0.024691360229 -0.202125696539 
      0.030856116194      -0.003916213736      -0.024691360229 -0.094492305101 
      0.036935310083      -0.003916213736      -0.024691360229 -0.105626537607 
      0.043318463665      -0.003916213736      -0.024691360229 -0.065582799934 
      0.050020774927      -0.003916213736      -0.024691360229 -0.082785174997 
      0.057058201752      -0.003916213736      -0.024691360229 -0.058540825615 
      0.064447499918      -0.003916213736      -0.024691360229 -0.150893766408 
      0.072206262993      -0.003916213736      -0.024691360229 -0.175184750545 
      0.080352964221      -0.003916213736      -0.024691360229 -0.344726734361 
      0.088907000511      -0.003916213736      -0.024691360229 -0.198377244367 
      0.097888738615      -0.003916213736      -0.024691360229 -0.618035443889 
      0.107319563624      -0.003916213736      -0.024691360229 -0.591607200068 
      0.117221929884      -0.003916213736      -0.024691360229 -3.691041896646 
      0.127619414457      -0.003916213736      -0.024691360229 -6.823459630874 
      0.138536773258      -0.003916213736      -0.024691360229 -1.556504265686 
      0.150000000000      -0.003916213736      -0.024691360229 -11.558518873781 
      0.161463226742      -0.003916213736      -0.024691360229 -24.495023013440 
      0.172380585543      -0.003916213736      -0.024691360229 -184.679803327999 
      0.182778070116      -0.003916213736      -0.024691360229 -82.551117297209 
      0.192680436376      -0.003916213736      -0.024691360229 94.754628620806 
      0.202111261385      -0.003916213736      -0.024691360229 30.983667095164 
      0.004536388079      -0.001952038088      -0.024923674434 -0.000843361730 
      0.009299595561      -0.001952038088      -0.024923674434 -0.042975982088 
      0.014300963418      -0.001952038088      -0.024923674434 -0.022811282081 
      0.019552399667      -0.001952038088      -0.024923674434 -0.018941523797 
      0.025066407729      -0.001952038088      -0.024923674434 -0.030831336436 
      0.030856116194      -0.001952038088      -0.024923674434 -0.007795758298 
      0.036935310083      -0.001952038088      -0.024923674434 -0.026369680175 
      0.043318463665      -0.001952038088      -0.024923674434 -0.014027892752 
      0.050020774927      -0.001952038088      -0.024923674434 -0.034376663467 
      0.057058201752      -0.001952038088      -0.024923674434 -0.070148358054 
      0.064447499918      -0.001952038088      -0.024923674434 -0.189214312873 
      0.072206262993      -0.001952038088      -0.024923674434 -0.316193323220 
      0.080352964221      -0.001952038088      -0.024923674434 -0.582877809246 
      0.088907000511      -0.001952038088      -0.024923674434 -0.837577900073 
      0.097888738615      -0.001952038088      -0.024923674434 -1.720547249561 
      0.107319563624      -0.001952038088      -0.024923674434 -3.267934622612 
      0.117221929884      -0.001952038088      -0.024923674434 -8.132376344130 
      0.127619414457      -0.001952038088      -0.024923674434 -19.024612548510 
      0.138536773258      -0.001952038088      -0.024923674434 -28.778534078429 
      0.150000000000      -0.001952038088      -0.024923674434 -60.005487640112 
      0.161463226742      -0.001952038088      -0.024923674434 -126.798524768152 
      0.172380585543      -0.001952038088      -0.024923674434 -275.351945241324 
      0.182778070116      -0.001952038088      -0.024923674434 -117.786306245876 
      0.192680436376      -0.001952038088      -0.024923674434 47.447604894238 
      0.202111261385      -0.001952038088      -0.024923674434 -36.908026641816 
      0.211092999489      -0.001952038088      -0.024923674434 -34.009449656280 
      0.117221929884       0.022270261104       0.011359378080 0.000000000022 
      0.107319563624       0.022270261104       0.011359378080 0.000000000007 
      0.097888738615       0.022270261104       0.011359378080 -0.000000000003 
      0.088907000511       0.022270261104       0.011359378080 2657.191991996949 
      0.080352964221       0.022270261104       0.011359378080 1013.987000363989 
      0.072206262993       0.022270261104       0.011359378080 -844.428916565093 
      0.064447499918       0.022270261104       0.011359378080 1214.465486654760 
      0.127619414457       0.023096988313       0.009567085809 0.000000000020 