TITLE      =  Unstructured grid data
VARIABLES  =  "x0" "x1" "x2" "Phi"
ZONE   T="P7 ZONE0 Hexa", N=15536, E=13668, F=FEPOINT, ET=BRICK, SOLUTIONTIME=0
      0.300000000000       0.000000000000       0.040000000000 2.000000000000 
      0.107319563624       0.000000000000       0.040000000000 -0.000000005869 
      0.117221929884       0.000000000000       0.040000000000 -0.000000009510 
      0.127619414457       0.000000000000       0.040000000000 -0.000000009774 
      0.138536773258       0.000000000000       0.040000000000 -0.000000007947 
      0.150000000000       0.000000000000       0.040000000000 -0.000000006857 
      0.161463226742       0.000000000000       0.040000000000 -0.000000004580 
      0.172380585543       0.000000000000       0.040000000000 -0.000000003475 
      0.182778070116       0.000000000000       0.040000000000 -0.000000002033 
      0.192680436376       0.000000000000       0.040000000000 -0.000000001419 
      0.202111261385       0.000000000000       0.040000000000 -0.000000000706 
      0.211092999489       0.000000000000       0.040000000000 -0.000000000474 
      0.219647035779       0.000000000000       0.040000000000 -0.000000000187 
      0.227793737007       0.000000000000       0.040000000000 -0.000000000134 
      0.235552500082       0.000000000000       0.040000000000 -0.000000000038 
      0.242941798248       0.000000000000       0.040000000000 -0.000000000038 
      0.249979225073       0.000000000000       0.040000000000 -0.000000000010 
      0.256681536335       0.000000000000       0.040000000000 -0.000000000008 
      0.263064689917       0.000000000000       0.040000000000 -0.000000000002 
      0.269143883806       0.000000000000       0.040000000000 -0.000000000002 
      0.274933592271       0.000000000000       0.040000000000 -0.000000000000 
      0.280447600333       0.000000000000       0.040000000000 -0.000000000000 
      0.285699036582       0.000000000000       0.040000000000 0.000000000000 
      0.290700404439       0.000000000000       0.040000000000 -0.000000000000 
      0.295463611921       0.000000000000       0.040000000000 -0.000000000000 
      0.300000000000       0.000000000000       0.025000000000 2.000000000000 
      0.295463611921       0.000000000000       0.025000000000 -0.000000000007 
      0.290700404439       0.000000000000       0.025000000000 -0.000000000006 
      0.285699036582       0.000000000000       0.025000000000 0.000000000001 
      0.280447600333       0.000000000000       0.025000000000 -0.000000000001 
      0.274933592271       0.000000000000       0.025000000000 0.000000000001 
      0.269143883806       0.000000000000       0.025000000000 -0.000000000000 
      0.263064689917       0.000000000000       0.025000000000 -0.000000000000 
      0.256681536335       0.000000000000       0.025000000000 0.000000000000 
      0.249979225073       0.000000000000       0.025000000000 -0.000000000000 
      0.242941798248       0.000000000000       0.025000000000 -0.000000000000 
      0.235552500082       0.000000000000       0.025000000000 -0.000000000000 
      0.227793737007       0.000000000000       0.025000000000 0.000000000000 
      0.219647035779       0.000000000000       0.025000000000 -0.000000000000 
      0.211092999489       0.000000000000       0.025000000000 0.000000000000 
      0.202111261385       0.000000000000       0.025000000000 0.000000000000 
      0.192680436376       0.000000000000       0.025000000000 0.000000000000 
      0.182778070116       0.000000000000       0.025000000000 0.000000000000 
      0.172380585543       0.000000000000       0.025000000000 0.000000000000 
      0.161463226742       0.000000000000       0.025000000000 0.000000000000 
      0.150000000000       0.000000000000       0.025000000000 0.000000000000 
      0.138536773258       0.000000000000       0.025000000000 0.000000000000 
      0.127619414457       0.000000000000       0.025000000000 0.000000000000 
      0.117221929884       0.000000000000       0.025000000000 -0.000000000002 
      0.107319563624       0.000000000000       0.025000000000 -0.000000000010 
      0.097888738615       0.000000000000       0.025000000000 -0.000000000015 
      0.300000000000      -0.003138363829       0.039876693349 2.000000000000 
      0.300000000000      -0.006257378602       0.039507533624 2.000000000000 
      0.300000000000      -0.009337814554       0.038894796816 2.000000000000 
      0.300000000000      -0.012360679775       0.038042260652 2.000000000000 
      0.300000000000      -0.015307337295       0.036955181300 2.000000000000 
      0.300000000000      -0.018159619990       0.035640260967 2.000000000000 
      0.300000000000      -0.020899942589       0.034105606574 2.000000000000 
      0.300000000000      -0.023511410092       0.032360679775 2.000000000000 
      0.300000000000      -0.025977921933       0.030416238624 2.000000000000 
      0.300000000000      -0.028284271247       0.028284271247 2.000000000000 
      0.300000000000      -0.030416238624       0.025977921933 2.000000000000 
      0.300000000000      -0.032360679775       0.023511410092 2.000000000000 
      0.300000000000      -0.034105606574       0.020899942589 2.000000000000 
      0.300000000000      -0.035640260967       0.018159619990 2.000000000000 
      0.300000000000      -0.036955181300       0.015307337295 2.000000000000 
      0.300000000000      -0.038042260652       0.012360679775 2.000000000000 
      0.300000000000      -0.038894796816       0.009337814554 2.000000000000 
      0.300000000000      -0.039507533624       0.006257378602 2.000000000000 
      0.300000000000      -0.039876693349       0.003138363829 2.000000000000 
      0.300000000000      -0.040000000000       0.000000000000 2.000000000000 
      0.300000000000      -0.039876693349      -0.003138363829 2.000000000000 
      0.300000000000      -0.039507533624      -0.006257378602 2.000000000000 
      0.300000000000      -0.038894796816      -0.009337814554 2.000000000000 
      0.300000000000      -0.038042260652      -0.012360679775 2.000000000000 
      0.300000000000      -0.001961477393       0.024922933343 2.000000000000 
      0.300000000000      -0.003910861626       0.024692208515 2.000000000000 
      0.300000000000      -0.005836134096       0.024309248010 2.000000000000 
      0.300000000000      -0.007725424859       0.023776412907 2.000000000000 
      0.300000000000      -0.009567085809       0.023096988313 2.000000000000 
      0.300000000000      -0.011349762494       0.022275163105 2.000000000000 
      0.300000000000      -0.013062464118       0.021316004109 2.000000000000 
      0.300000000000      -0.014694631307       0.020225424859 2.000000000000 
      0.300000000000      -0.016236201208       0.019010149140 2.000000000000 
      0.300000000000      -0.017677669530       0.017677669530 2.000000000000 
      0.300000000000      -0.019010149140       0.016236201208 2.000000000000 
      0.300000000000      -0.020225424859       0.014694631307 2.000000000000 
      0.300000000000      -0.021316004109       0.013062464118 2.000000000000 
      0.300000000000      -0.022275163105       0.011349762494 2.000000000000 
      0.300000000000      -0.023096988313       0.009567085809 2.000000000030 
      0.300000000000      -0.023776412907       0.007725424859 2.000000000063 
      0.300000000000      -0.024309248010       0.005836134096 2.000000000073 
      0.300000000000      -0.024692208515       0.003910861626 2.000000000084 
      0.300000000000      -0.024922933343       0.001961477393 2.000000000058 
      0.300000000000      -0.025000000000       0.000000000000 2.000000000000 
      0.300000000000       0.003910861626       0.024692208515 2.000000000000 
      0.300000000000       0.001961477393       0.024922933343 2.000000000000 
      0.300000000000       0.006257378602       0.039507533624 2.000000000000 
      0.300000000000       0.003138363829       0.039876693349 2.000000000000 
      0.300000000000       0.000000000000       0.039463806647 2.000000000000 
      0.300000000000       0.000000000000       0.038873993960 2.000000000000 
      0.300000000000       0.000000000000       0.038225200004 2.000000000000 
      0.300000000000       0.000000000000       0.037511526654 2.000000000000 
      0.300000000000       0.000000000000       0.036726485969 2.000000000000 
      0.300000000000       0.000000000000       0.035862941217 2.000000000000 
      0.300000000000       0.000000000000       0.034913041991 2.000000000000 
      0.300000000000       0.000000000000       0.033868152842 2.000000000000 
      0.300000000000       0.000000000000       0.032718774781 2.000000000000 
      0.300000000000       0.000000000000       0.031454458914 2.000000000000 
      0.300000000000       0.000000000000       0.030063711462 2.000000000000 
      0.300000000000       0.000000000000       0.028533889266 2.000000000000 
      0.300000000000       0.000000000000       0.026851084853 2.000000000000 
      0.295463611921       0.000000000000       0.026851084853 0.000000000000 
      0.290700404439       0.000000000000       0.026851084853 0.000000000000 
      0.285699036582       0.000000000000       0.026851084853 -0.000000000000 
      0.280447600333       0.000000000000       0.026851084853 -0.000000000000 
      0.274933592271       0.000000000000       0.026851084853 -0.000000000000 
      0.269143883806       0.000000000000       0.026851084853 -0.000000000000 
      0.263064689917       0.000000000000       0.026851084853 -0.000000000000 
      0.256681536335       0.000000000000       0.026851084853 0.000000000000 
      0.249979225073       0.000000000000       0.026851084853 0.000000000000 
      0.242941798248       0.000000000000       0.026851084853 0.000000000000 
      0.235552500082       0.000000000000       0.026851084853 0.000000000000 
      0.227793737007       0.000000000000       0.026851084853 0.000000000000 
      0.219647035779       0.000000000000       0.026851084853 0.000000000000 
      0.211092999489       0.000000000000       0.026851084853 -0.000000000000 
      0.202111261385       0.000000000000       0.026851084853 0.000000000000 
      0.192680436376       0.000000000000       0.026851084853 0.000000000000 
      0.182778070116       0.000000000000       0.026851084853 0.000000000000 
      0.172380585543       0.000000000000       0.026851084853 0.000000000000 
      0.161463226742       0.000000000000       0.026851084853 0.000000000000 
      0.150000000000       0.000000000000       0.026851084853 0.000000000000 
      0.138536773258       0.000000000000       0.026851084853 0.000000000000 
      0.127619414457       0.000000000000       0.026851084853 0.000000000000 
      0.117221929884       0.000000000000       0.026851084853 0.000000000000 
      0.107319563624       0.000000000000       0.026851084853 0.000000000000 
      0.097888738615       0.000000000000       0.026851084853 -0.000000000000 
      0.088907000511       0.000000000000       0.026851084853 -0.000000000002 
      0.295463611921       0.000000000000       0.028533889266 -0.000000000000 
      0.290700404439       0.000000000000       0.028533889266 0.000000000000 
      0.285699036582       0.000000000000       0.028533889266 0.000000000000 
      0.280447600333       0.000000000000       0.028533889266 -0.000000000000 
      0.274933592271       0.000000000000       0.028533889266 -0.000000000000 
      0.269143883806       0.000000000000       0.028533889266 -0.000000000000 
      0.263064689917       0.000000000000       0.028533889266 -0.000000000000 
      0.256681536335       0.000000000000       0.028533889266 -0.000000000000 
      0.249979225073       0.000000000000       0.028533889266 -0.000000000000 
      0.242941798248       0.000000000000       0.028533889266 -0.000000000000 
      0.235552500082       0.000000000000       0.028533889266 0.000000000000 
      0.227793737007       0.000000000000       0.028533889266 -0.000000000000 
      0.219647035779       0.000000000000       0.028533889266 0.000000000000 
      0.211092999489       0.000000000000       0.028533889266 0.000000000000 
      0.202111261385       0.000000000000       0.028533889266 0.000000000000 
      0.192680436376       0.000000000000       0.028533889266 0.000000000000 
      0.182778070116       0.000000000000       0.028533889266 0.000000000000 
      0.172380585543       0.000000000000       0.028533889266 -0.000000000000 
      0.161463226742       0.000000000000       0.028533889266 -0.000000000000 
      0.150000000000       0.000000000000       0.028533889266 -0.000000000000 
      0.138536773258       0.000000000000       0.028533889266 -0.000000000000 
      0.127619414457       0.000000000000       0.028533889266 -0.000000000000 
      0.117221929884       0.000000000000       0.028533889266 -0.000000000000 
      0.107319563624       0.000000000000       0.028533889266 -0.000000000000 
      0.097888738615       0.000000000000       0.028533889266 0.000000000000 
      0.088907000511       0.000000000000       0.028533889266 0.000000000001 
      0.295463611921       0.000000000000       0.030063711462 -0.000000000000 
      0.290700404439       0.000000000000       0.030063711462 -0.000000000000 
      0.285699036582       0.000000000000       0.030063711462 -0.000000000000 
      0.280447600333       0.000000000000       0.030063711462 0.000000000000 
      0.274933592271       0.000000000000       0.030063711462 0.000000000000 
      0.269143883806       0.000000000000       0.030063711462 0.000000000000 
      0.263064689917       0.000000000000       0.030063711462 0.000000000000 
      0.256681536335       0.000000000000       0.030063711462 0.000000000000 
      0.249979225073       0.000000000000       0.030063711462 0.000000000000 
      0.242941798248       0.000000000000       0.030063711462 0.000000000000 
      0.235552500082       0.000000000000       0.030063711462 0.000000000000 
      0.227793737007       0.000000000000       0.030063711462 0.000000000000 
      0.219647035779       0.000000000000       0.030063711462 0.000000000000 
      0.211092999489       0.000000000000       0.030063711462 0.000000000000 
      0.202111261385       0.000000000000       0.030063711462 0.000000000000 
      0.192680436376       0.000000000000       0.030063711462 0.000000000000 
      0.182778070116       0.000000000000       0.030063711462 0.000000000000 
      0.172380585543       0.000000000000       0.030063711462 0.000000000000 
      0.161463226742       0.000000000000       0.030063711462 -0.000000000000 
      0.150000000000       0.000000000000       0.030063711462 -0.000000000000 
      0.138536773258       0.000000000000       0.030063711462 -0.000000000000 
      0.127619414457       0.000000000000       0.030063711462 -0.000000000000 
      0.117221929884       0.000000000000       0.030063711462 -0.000000000001 
      0.107319563624       0.000000000000       0.030063711462 0.000000000000 
      0.097888738615       0.000000000000       0.030063711462 -0.000000000001 
      0.088907000511       0.000000000000       0.030063711462 -0.000000000004 
      0.295463611921       0.000000000000       0.031454458914 -0.000000000000 
      0.290700404439       0.000000000000       0.031454458914 -0.000000000000 
      0.285699036582       0.000000000000       0.031454458914 -0.000000000000 
      0.280447600333       0.000000000000       0.031454458914 0.000000000000 
      0.274933592271       0.000000000000       0.031454458914 0.000000000000 
      0.269143883806       0.000000000000       0.031454458914 0.000000000000 
      0.263064689917       0.000000000000       0.031454458914 -0.000000000000 
      0.256681536335       0.000000000000       0.031454458914 0.000000000000 
      0.249979225073       0.000000000000       0.031454458914 -0.000000000000 
      0.242941798248       0.000000000000       0.031454458914 0.000000000000 
      0.235552500082       0.000000000000       0.031454458914 0.000000000000 
      0.227793737007       0.000000000000       0.031454458914 0.000000000000 
      0.219647035779       0.000000000000       0.031454458914 0.000000000000 
      0.211092999489       0.000000000000       0.031454458914 0.000000000000 
      0.202111261385       0.000000000000       0.031454458914 -0.000000000000 
      0.192680436376       0.000000000000       0.031454458914 -0.000000000000 
      0.182778070116       0.000000000000       0.031454458914 -0.000000000000 
      0.172380585543       0.000000000000       0.031454458914 -0.000000000000 
      0.161463226742       0.000000000000       0.031454458914 -0.000000000000 
      0.150000000000       0.000000000000       0.031454458914 -0.000000000000 
      0.138536773258       0.000000000000       0.031454458914 -0.000000000000 
      0.127619414457       0.000000000000       0.031454458914 -0.000000000002 
      0.117221929884       0.000000000000       0.031454458914 -0.000000000002 
      0.107319563624       0.000000000000       0.031454458914 -0.000000000006 
      0.097888738615       0.000000000000       0.031454458914 -0.000000000001 
      0.088907000511       0.000000000000       0.031454458914 0.000000000010 
      0.295463611921       0.000000000000       0.032718774781 -0.000000000000 
      0.290700404439       0.000000000000       0.032718774781 -0.000000000000 
      0.285699036582       0.000000000000       0.032718774781 -0.000000000000 
      0.280447600333       0.000000000000       0.032718774781 -0.000000000000 
      0.274933592271       0.000000000000       0.032718774781 0.000000000000 
      0.269143883806       0.000000000000       0.032718774781 -0.000000000000 
      0.263064689917       0.000000000000       0.032718774781 0.000000000000 
      0.256681536335       0.000000000000       0.032718774781 -0.000000000000 
      0.249979225073       0.000000000000       0.032718774781 0.000000000000 
      0.242941798248       0.000000000000       0.032718774781 -0.000000000000 
      0.235552500082       0.000000000000       0.032718774781 -0.000000000000 
      0.227793737007       0.000000000000       0.032718774781 -0.000000000000 
      0.219647035779       0.000000000000       0.032718774781 -0.000000000000 
      0.211092999489       0.000000000000       0.032718774781 -0.000000000001 
      0.202111261385       0.000000000000       0.032718774781 -0.000000000001 
      0.192680436376       0.000000000000       0.032718774781 -0.000000000002 
      0.182778070116       0.000000000000       0.032718774781 -0.000000000002 
      0.172380585543       0.000000000000       0.032718774781 -0.000000000002 
      0.161463226742       0.000000000000       0.032718774781 -0.000000000002 
      0.150000000000       0.000000000000       0.032718774781 -0.000000000001 
      0.138536773258       0.000000000000       0.032718774781 -0.000000000003 
      0.127619414457       0.000000000000       0.032718774781 -0.000000000004 
      0.117221929884       0.000000000000       0.032718774781 -0.000000000015 
      0.107319563624       0.000000000000       0.032718774781 -0.000000000011 
      0.097888738615       0.000000000000       0.032718774781 -0.000000000032 
      0.088907000511       0.000000000000       0.032718774781 -0.000000000066 
      0.295463611921       0.000000000000       0.033868152842 -0.000000000000 
      0.290700404439       0.000000000000       0.033868152842 -0.000000000000 
      0.285699036582       0.000000000000       0.033868152842 -0.000000000000 
      0.280447600333       0.000000000000       0.033868152842 -0.000000000000 
      0.274933592271       0.000000000000       0.033868152842 -0.000000000000 
      0.269143883806       0.000000000000       0.033868152842 -0.000000000000 
      0.263064689917       0.000000000000       0.033868152842 -0.000000000000 
      0.256681536335       0.000000000000       0.033868152842 0.000000000000 
      0.249979225073       0.000000000000       0.033868152842 -0.000000000000 
      0.242941798248       0.000000000000       0.033868152842 -0.000000000000 
      0.235552500082       0.000000000000       0.033868152842 -0.000000000001 
      0.227793737007       0.000000000000       0.033868152842 -0.000000000001 
      0.219647035779       0.000000000000       0.033868152842 -0.000000000002 
      0.211092999489       0.000000000000       0.033868152842 -0.000000000003 
      0.202111261385       0.000000000000       0.033868152842 -0.000000000005 
      0.192680436376       0.000000000000       0.033868152842 -0.000000000006 
      0.182778070116       0.000000000000       0.033868152842 -0.000000000009 
      0.172380585543       0.000000000000       0.033868152842 -0.000000000010 
      0.161463226742       0.000000000000       0.033868152842 -0.000000000010 
      0.150000000000       0.000000000000       0.033868152842 -0.000000000008 
      0.138536773258       0.000000000000       0.033868152842 -0.000000000002 
      0.127619414457       0.000000000000       0.033868152842 -0.000000000018 
      0.117221929884       0.000000000000       0.033868152842 -0.000000000025 
      0.107319563624       0.000000000000       0.033868152842 -0.000000000081 
      0.097888738615       0.000000000000       0.033868152842 -0.000000000064 
      0.088907000511       0.000000000000       0.033868152842 0.000000000010 
      0.295463611921       0.000000000000       0.034913041991 -0.000000000000 
      0.290700404439       0.000000000000       0.034913041991 -0.000000000000 
      0.285699036582       0.000000000000       0.034913041991 -0.000000000000 
      0.280447600333       0.000000000000       0.034913041991 -0.000000000000 
      0.274933592271       0.000000000000       0.034913041991 -0.000000000000 
      0.269143883806       0.000000000000       0.034913041991 -0.000000000000 
      0.263064689917       0.000000000000       0.034913041991 -0.000000000000 
      0.256681536335       0.000000000000       0.034913041991 -0.000000000000 
      0.249979225073       0.000000000000       0.034913041991 -0.000000000000 
      0.242941798248       0.000000000000       0.034913041991 -0.000000000001 
      0.235552500082       0.000000000000       0.034913041991 -0.000000000001 
      0.227793737007       0.000000000000       0.034913041991 -0.000000000004 
      0.219647035779       0.000000000000       0.034913041991 -0.000000000005 
      0.211092999489       0.000000000000       0.034913041991 -0.000000000011 
      0.202111261385       0.000000000000       0.034913041991 -0.000000000014 
      0.192680436376       0.000000000000       0.034913041991 -0.000000000024 
      0.182778070116       0.000000000000       0.034913041991 -0.000000000029 
      0.172380585543       0.000000000000       0.034913041991 -0.000000000039 
      0.161463226742       0.000000000000       0.034913041991 -0.000000000040 
      0.150000000000       0.000000000000       0.034913041991 -0.000000000037 
      0.138536773258       0.000000000000       0.034913041991 -0.000000000024 
      0.127619414457       0.000000000000       0.034913041991 -0.000000000012 
      0.117221929884       0.000000000000       0.034913041991 -0.000000000105 
      0.107319563624       0.000000000000       0.034913041991 -0.000000000141 
      0.097888738615       0.000000000000       0.034913041991 -0.000000000432 
      0.088907000511       0.000000000000       0.034913041991 -0.000000000745 
      0.295463611921       0.000000000000       0.035862941217 -0.000000000000 
      0.290700404439       0.000000000000       0.035862941217 -0.000000000000 
      0.285699036582       0.000000000000       0.035862941217 -0.000000000000 
      0.280447600333       0.000000000000       0.035862941217 -0.000000000000 
      0.274933592271       0.000000000000       0.035862941217 -0.000000000000 
      0.269143883806       0.000000000000       0.035862941217 -0.000000000000 
      0.263064689917       0.000000000000       0.035862941217 -0.000000000001 
      0.256681536335       0.000000000000       0.035862941217 -0.000000000000 
      0.249979225073       0.000000000000       0.035862941217 -0.000000000002 
      0.242941798248       0.000000000000       0.035862941217 -0.000000000001 
      0.235552500082       0.000000000000       0.035862941217 -0.000000000005 
      0.227793737007       0.000000000000       0.035862941217 -0.000000000006 
      0.219647035779       0.000000000000       0.035862941217 -0.000000000017 
      0.211092999489       0.000000000000       0.035862941217 -0.000000000024 
      0.202111261385       0.000000000000       0.035862941217 -0.000000000047 
      0.192680436376       0.000000000000       0.035862941217 -0.000000000063 
      0.182778070116       0.000000000000       0.035862941217 -0.000000000097 
      0.172380585543       0.000000000000       0.035862941217 -0.000000000103 
      0.161463226742       0.000000000000       0.035862941217 -0.000000000132 
      0.150000000000       0.000000000000       0.035862941217 -0.000000000143 
      0.138536773258       0.000000000000       0.035862941217 -0.000000000112 
      0.127619414457       0.000000000000       0.035862941217 -0.000000000063 
      0.117221929884       0.000000000000       0.035862941217 -0.000000000092 
      0.107319563624       0.000000000000       0.035862941217 -0.000000000574 
      0.097888738615       0.000000000000       0.035862941217 -0.000000001185 
      0.088907000511       0.000000000000       0.035862941217 -0.000000001673 
      0.295463611921       0.000000000000       0.036726485969 -0.000000000000 
      0.290700404439       0.000000000000       0.036726485969 -0.000000000000 
      0.285699036582       0.000000000000       0.036726485969 -0.000000000000 
      0.280447600333       0.000000000000       0.036726485969 -0.000000000000 
      0.274933592271       0.000000000000       0.036726485969 -0.000000000000 
      0.269143883806       0.000000000000       0.036726485969 -0.000000000001 
      0.263064689917       0.000000000000       0.036726485969 -0.000000000001 
      0.256681536335       0.000000000000       0.036726485969 -0.000000000002 
      0.249979225073       0.000000000000       0.036726485969 -0.000000000002 
      0.242941798248       0.000000000000       0.036726485969 -0.000000000007 
      0.235552500082       0.000000000000       0.036726485969 -0.000000000008 
      0.227793737007       0.000000000000       0.036726485969 -0.000000000023 
      0.219647035779       0.000000000000       0.036726485969 -0.000000000033 
      0.211092999489       0.000000000000       0.036726485969 -0.000000000073 
      0.202111261385       0.000000000000       0.036726485969 -0.000000000106 
      0.192680436376       0.000000000000       0.036726485969 -0.000000000184 
      0.182778070116       0.000000000000       0.036726485969 -0.000000000211 
      0.172380585543       0.000000000000       0.036726485969 -0.000000000306 
      0.161463226742       0.000000000000       0.036726485969 -0.000000000351 
      0.150000000000       0.000000000000       0.036726485969 -0.000000000443 
      0.138536773258       0.000000000000       0.036726485969 -0.000000000399 
      0.127619414457       0.000000000000       0.036726485969 -0.000000000214 
      0.117221929884       0.000000000000       0.036726485969 -0.000000000342 
      0.107319563624       0.000000000000       0.036726485969 -0.000000000677 
      0.097888738615       0.000000000000       0.036726485969 -0.000000000955 
      0.295463611921       0.000000000000       0.037511526654 0.000000000000 
      0.290700404439       0.000000000000       0.037511526654 -0.000000000000 
      0.285699036582       0.000000000000       0.037511526654 -0.000000000000 
      0.280447600333       0.000000000000       0.037511526654 -0.000000000000 
      0.274933592271       0.000000000000       0.037511526654 -0.000000000000 
      0.269143883806       0.000000000000       0.037511526654 -0.000000000001 
      0.263064689917       0.000000000000       0.037511526654 -0.000000000002 
      0.256681536335       0.000000000000       0.037511526654 -0.000000000002 
      0.249979225073       0.000000000000       0.037511526654 -0.000000000007 
      0.242941798248       0.000000000000       0.037511526654 -0.000000000008 
      0.235552500082       0.000000000000       0.037511526654 -0.000000000027 
      0.227793737007       0.000000000000       0.037511526654 -0.000000000039 
      0.219647035779       0.000000000000       0.037511526654 -0.000000000096 
      0.211092999489       0.000000000000       0.037511526654 -0.000000000147 
      0.202111261385       0.000000000000       0.037511526654 -0.000000000283 
      0.192680436376       0.000000000000       0.037511526654 -0.000000000348 
      0.182778070116       0.000000000000       0.037511526654 -0.000000000564 
      0.172380585543       0.000000000000       0.037511526654 -0.000000000716 
      0.161463226742       0.000000000000       0.037511526654 -0.000000001030 
      0.150000000000       0.000000000000       0.037511526654 -0.000000001136 
      0.138536773258       0.000000000000       0.037511526654 -0.000000001316 
      0.127619414457       0.000000000000       0.037511526654 -0.000000001074 
      0.117221929884       0.000000000000       0.037511526654 -0.000000000135 
      0.107319563624       0.000000000000       0.037511526654 -0.000000001153 
      0.097888738615       0.000000000000       0.037511526654 -0.000000002266 
      0.295463611921       0.000000000000       0.038225200004 0.000000000000 
      0.290700404439       0.000000000000       0.038225200004 -0.000000000000 
      0.285699036582       0.000000000000       0.038225200004 -0.000000000000 
      0.280447600333       0.000000000000       0.038225200004 -0.000000000000 