TITLE      =  Unstructured grid data
VARIABLES  =  "x0" "x1" "x2" "Phi"
ZONE   T="P4 ZONE0 Hexa", N=15844, E=13767, F=FEPOINT, ET=BRICK, SOLUTIONTIME=0
      0.300000000000       0.000000000000       0.025000000000 2.000000000000 
      0.295463611921       0.000000000000       0.025000000000 -0.000000000007 
      0.290700404439       0.000000000000       0.025000000000 -0.000000000006 
      0.285699036582       0.000000000000       0.025000000000 0.000000000001 
      0.280447600333       0.000000000000       0.025000000000 -0.000000000001 
      0.274933592271       0.000000000000       0.025000000000 0.000000000001 
      0.269143883806       0.000000000000       0.025000000000 -0.000000000000 
      0.263064689917       0.000000000000       0.025000000000 -0.000000000000 
      0.256681536335       0.000000000000       0.025000000000 -0.000000000000 
      0.249979225073       0.000000000000       0.025000000000 -0.000000000001 
      0.300000000000      -0.001961477393       0.024922933343 2.000000000000 
      0.300000000000      -0.003910861626       0.024692208515 2.000000000000 
      0.300000000000      -0.005836134096       0.024309248010 2.000000000000 
      0.300000000000      -0.007725424859       0.023776412907 2.000000000000 
      0.300000000000      -0.009567085809       0.023096988313 2.000000000000 
      0.300000000000      -0.011349762494       0.022275163105 2.000000000000 
      0.300000000000       0.001961477393      -0.024922933343 2.000000000000 
      0.300000000000       0.003910861626      -0.024692208515 2.000000000000 
      0.300000000000       0.005836134096      -0.024309248010 2.000000000000 
      0.300000000000       0.007725424859      -0.023776412907 2.000000000000 
      0.300000000000       0.009567085809      -0.023096988313 2.000000000000 
      0.300000000000       0.011349762494      -0.022275163105 2.000000000000 
      0.300000000000       0.013062464118      -0.021316004109 2.000000000000 
      0.300000000000       0.014694631307      -0.020225424859 2.000000000000 
      0.300000000000       0.016236201208      -0.019010149140 2.000000000000 
      0.300000000000       0.017677669530      -0.017677669530 2.000000000000 
      0.300000000000       0.019010149140      -0.016236201208 2.000000000000 
      0.300000000000       0.020225424859      -0.014694631307 2.000000000000 
      0.300000000000       0.021316004109      -0.013062464118 2.000000000000 
      0.300000000000       0.022275163105      -0.011349762494 2.000000000000 
      0.300000000000       0.023096988313      -0.009567085809 2.000000000000 
      0.300000000000       0.023776412907      -0.007725424859 2.000000000000 
      0.300000000000       0.024309248010      -0.005836134096 2.000000000000 
      0.300000000000       0.024692208515      -0.003910861626 2.000000000000 
      0.300000000000       0.024922933343      -0.001961477393 2.000000000000 
      0.300000000000       0.025000000000      -0.000000000000 2.000000000000 
      0.300000000000       0.024922933343       0.001961477393 2.000000000000 
      0.300000000000       0.024692208515       0.003910861626 2.000000000000 
      0.300000000000       0.024309248010       0.005836134096 2.000000000000 
      0.300000000000       0.023776412907       0.007725424859 2.000000000000 
      0.300000000000       0.023096988313       0.009567085809 2.000000000000 
      0.300000000000       0.022275163105       0.011349762494 2.000000000000 
      0.300000000000       0.021316004109       0.013062464118 2.000000000000 
      0.300000000000       0.020225424859       0.014694631307 2.000000000000 
      0.300000000000       0.019010149140       0.016236201208 2.000000000000 
      0.300000000000       0.017677669530       0.017677669530 2.000000000000 
      0.300000000000       0.016236201208       0.019010149140 2.000000000000 
      0.300000000000       0.014694631307       0.020225424859 2.000000000000 
      0.300000000000       0.013062464118       0.021316004109 2.000000000000 
      0.300000000000       0.011349762494       0.022275163105 2.000000000000 
      0.300000000000       0.009567085809       0.023096988313 2.000000000000 
      0.300000000000       0.007725424859       0.023776412907 2.000000000000 
      0.300000000000       0.005836134096       0.024309248010 2.000000000000 
      0.300000000000       0.003910861626       0.024692208515 2.000000000000 
      0.300000000000       0.001961477393       0.024922933343 2.000000000000 
      0.300000000000       0.012360679775      -0.038042260652 2.000000000000 
      0.300000000000       0.015307337295      -0.036955181300 2.000000000000 
      0.300000000000       0.018159619990      -0.035640260967 2.000000000000 
      0.300000000000       0.020899942589      -0.034105606574 2.000000000000 
      0.300000000000       0.023511410092      -0.032360679775 2.000000000000 
      0.300000000000       0.025977921933      -0.030416238624 2.000000000000 
      0.300000000000       0.028284271247      -0.028284271247 2.000000000000 
      0.300000000000       0.030416238624      -0.025977921933 2.000000000000 
      0.300000000000       0.032360679775      -0.023511410092 2.000000000000 
      0.300000000000       0.034105606574      -0.020899942589 2.000000000000 
      0.300000000000       0.035640260967      -0.018159619990 2.000000000000 
      0.300000000000       0.036955181300      -0.015307337295 2.000000000000 
      0.300000000000       0.038042260652      -0.012360679775 2.000000000000 
      0.300000000000       0.038894796816      -0.009337814554 2.000000000000 
      0.300000000000       0.039507533624      -0.006257378602 2.000000000000 
      0.300000000000       0.039876693349      -0.003138363829 2.000000000000 
      0.300000000000       0.040000000000      -0.000000000000 2.000000000000 
      0.300000000000       0.039876693349       0.003138363829 2.000000000000 
      0.300000000000       0.039507533624       0.006257378602 2.000000000000 
      0.300000000000       0.038894796816       0.009337814554 2.000000000000 
      0.300000000000       0.038042260652       0.012360679775 2.000000000000 
      0.300000000000       0.036955181300       0.015307337295 2.000000000000 
      0.300000000000       0.035640260967       0.018159619990 2.000000000000 
      0.300000000000       0.034105606574       0.020899942589 2.000000000000 
      0.300000000000       0.000000000000       0.028533889266 2.000000000000 
      0.300000000000       0.000000000000       0.026851084853 2.000000000000 
      0.295463611921       0.000000000000       0.026851084853 0.000000000000 
      0.290700404439       0.000000000000       0.026851084853 0.000000000000 
      0.285699036582       0.000000000000       0.026851084853 -0.000000000000 
      0.280447600333       0.000000000000       0.026851084853 -0.000000000000 
      0.274933592271       0.000000000000       0.026851084853 -0.000000000000 
      0.269143883806       0.000000000000       0.026851084853 -0.000000000000 
      0.263064689917       0.000000000000       0.026851084853 0.000000000000 
      0.256681536335       0.000000000000       0.026851084853 0.000000000000 
      0.295463611921       0.000000000000       0.028533889266 0.000000000000 
      0.290700404439       0.000000000000       0.028533889266 0.000000000000 
      0.285699036582       0.000000000000       0.028533889266 -0.000000000000 
      0.280447600333       0.000000000000       0.028533889266 -0.000000000000 
      0.274933592271       0.000000000000       0.028533889266 -0.000000000000 
      0.269143883806       0.000000000000       0.028533889266 -0.000000000000 
      0.263064689917       0.000000000000       0.028533889266 0.000000000000 
      0.300000000000       0.002106711837       0.026768311919 2.000000000000 
      0.300000000000       0.002238743149       0.028445928808 2.000000000000 
      0.300000000000       0.004200435095       0.026520503441 2.000000000000 
      0.300000000000       0.004463683703       0.028182589740 2.000000000000 
      0.300000000000       0.006268261274       0.026109187241 2.000000000000 
      0.300000000000       0.006661104162       0.027745495634 2.000000000000 
      0.300000000000       0.008297441537       0.025536899218 2.000000000000 
      0.300000000000       0.008817456699       0.027137341321 2.000000000000 
      0.300000000000       0.010275465315       0.024807167720 2.000000000000 
      0.300000000000       0.010919446684       0.026361876275 2.000000000000 
      0.300000000000       0.012190137432       0.023924491784 2.000000000000 
      0.300000000000       0.012954114649       0.025423881495 2.000000000000 
      0.300000000000       0.014029653298       0.022894313401 2.000000000000 
      0.300000000000       0.014908916189       0.024329140032 2.000000000000 
      0.300000000000       0.015708246091       0.025633527879 2.000000000000 
      0.300000000000       0.015782671686       0.021722983962 2.000000000000 
      0.300000000000       0.016771799303       0.023084401330 2.000000000000 
      0.300000000000       0.017671006229       0.024322053484 2.000000000000 
      0.300000000000       0.018488467071       0.025447191807 2.000000000000 
      0.300000000000       0.017438384655       0.020417725103 2.000000000000 
      0.300000000000       0.018531278698       0.021697339617 2.000000000000 
      0.300000000000       0.019524818738       0.022860625540 2.000000000000 
      0.300000000000       0.020428036956       0.023918158199 2.000000000000 
      0.300000000000       0.021249144429       0.024879551526 2.000000000000 
      0.300000000000       0.018986584183       0.018986584180 2.000000000000 
      0.300000000000       0.020176506597       0.020176506591 2.000000000000 
      0.300000000000       0.021258254246       0.021258254238 2.000000000000 
      0.300000000000       0.022241661201       0.022241661192 2.000000000000 
      0.300000000000       0.023135667524       0.023135667515 2.000000000000 
      0.300000000000       0.023948400546       0.023948400536 2.000000000000 
      0.300000000000       0.024687248748       0.024687248739 2.000000000000 
      0.300000000000       0.020417725107       0.017438384651 2.000000000000 
      0.300000000000       0.021697339623       0.018531278692 2.000000000000 
      0.300000000000       0.022860625548       0.019524818730 2.000000000000 
      0.300000000000       0.023918158208       0.020428036948 2.000000000000 
      0.300000000000       0.024879551536       0.021249144420 2.000000000000 
      0.300000000000       0.025753545470       0.021995605759 2.000000000000 
      0.300000000000       0.026548085412       0.022674206977 2.000000000000 
      0.300000000000       0.027270394450       0.023291117176 2.000000000000 
      0.300000000000       0.027927039031       0.023851944631 2.000000000000 
      0.300000000000       0.028523988650       0.024361787772 2.000000000000 
      0.300000000000       0.021722983966       0.015782671682 2.000000000000 
      0.300000000000       0.023084401336       0.016771799298 2.000000000000 
      0.300000000000       0.024322053492       0.017671006222 2.000000000000 
      0.300000000000       0.025447191816       0.018488467063 2.000000000000 
      0.300000000000       0.026470044839       0.019231613283 2.000000000000 
      0.300000000000       0.027399911224       0.019907200757 2.000000000000 
      0.300000000000       0.028245244301       0.020521371189 2.000000000000 
      0.300000000000       0.029013728918       0.021079707946 2.000000000000 
      0.300000000000       0.029712351297       0.021587286817 2.000000000000 
      0.300000000000       0.030347462552       0.022048722154 2.000000000000 
      0.300000000000       0.030924836420       0.022468208825 2.000000000000 
      0.300000000000       0.031449721755       0.022849560345 2.000000000000 
      0.300000000000       0.022894313405       0.014029653294 2.000000000000 
      0.300000000000       0.024329140038       0.014908916183 2.000000000000 
      0.300000000000       0.025633527888       0.015708246083 2.000000000000 
      0.300000000000       0.026819335025       0.016434909630 2.000000000000 
      0.300000000000       0.027897341513       0.017095512856 2.000000000000 
      0.300000000000       0.028877347413       0.017696061243 2.000000000000 
      0.300000000000       0.029768261867       0.018242014324 2.000000000000 
      0.300000000000       0.030578184099       0.018738335307 2.000000000000 
      0.300000000000       0.031314477038       0.019189536201 2.000000000000 
      0.300000000000       0.031983834256       0.019599718833 2.000000000000 
      0.300000000000       0.032592340818       0.019972612135 2.000000000000 
      0.300000000000       0.033145528601       0.020311606047 2.000000000000 
      0.300000000000       0.033648426587       0.020619782330 2.000000000000 
      0.300000000000       0.023924491788       0.012190137428 2.000000000000 
      0.300000000000       0.025423881502       0.012954114643 2.000000000000 
      0.300000000000       0.026786963061       0.013648639385 2.000000000000 
      0.300000000000       0.028026128115       0.014280025514 2.000000000000 
      0.300000000000       0.029152641801       0.014854012906 2.000000000000 
      0.300000000000       0.030176745153       0.015375819627 2.000000000000 
      0.300000000000       0.031107748200       0.015850189374 2.000000000000 
      0.300000000000       0.031954114608       0.016281434599 2.000000000000 
      0.300000000000       0.032723538615       0.016673475713 2.000000000000 
      0.300000000000       0.033423014986       0.017029876727 2.000000000000 
      0.300000000000       0.034058902596       0.017353877649 2.000000000000 
      0.300000000000       0.034636982242       0.017648423942 2.000000000000 
      0.300000000000       0.035162509193       0.017916193300 2.000000000000 
      0.300000000000       0.024807167725       0.010275465311 2.000000000000 
      0.300000000000       0.026361876282       0.010919446678 2.000000000000 
      0.300000000000       0.027775247698       0.011504884285 2.000000000000 
      0.300000000000       0.029060130805       0.012037100293 2.000000000000 
      0.300000000000       0.030228206357       0.012520933028 2.000000000000 
      0.300000000000       0.031290093224       0.012960780970 2.000000000000 
      0.300000000000       0.032255444921       0.013360642736 2.000000000000 
      0.300000000000       0.033133037374       0.013724153433 2.000000000000 
      0.300000000000       0.033930848695       0.014054617703 2.000000000000 
      0.300000000000       0.034656131714       0.014355039768 2.000000000000 
      0.300000000000       0.035315479914       0.014628150736 2.000000000000 
      0.300000000000       0.035914887369       0.014876433436 2.000000000000 
      0.300000000000       0.036459803238       0.015102144981 2.000000000000 
      0.300000000000       0.025536899222       0.008297441534 2.000000000000 
      0.300000000000       0.027137341328       0.008817456693 2.000000000000 
      0.300000000000       0.028592288698       0.009290197748 2.000000000000 
      0.300000000000       0.029914968126       0.009719962345 2.000000000000 
      0.300000000000       0.031117403970       0.010110657434 2.000000000000 
      0.300000000000       0.032210527465       0.010465834788 2.000000000000 
      0.300000000000       0.033204276098       0.010788723292 2.000000000000 
      0.300000000000       0.034107683946       0.011082258297 2.000000000000 
      0.300000000000       0.034928963809       0.011349108301 2.000000000000 
      0.300000000000       0.035675581866       0.011591699215 2.000000000000 
      0.300000000000       0.036354325555       0.011812236410 2.000000000000 
      0.300000000000       0.036971365273       0.012012724770 2.000000000000 
      0.300000000000       0.037532310471       0.012194986915 2.000000000000 
      0.300000000000       0.026109187245       0.006268261270 2.000000000000 
      0.300000000000       0.027745495641       0.006661104156 2.000000000000 
      0.300000000000       0.029233048730       0.007018234053 2.000000000000 
      0.300000000000       0.030585369720       0.007342897597 2.000000000000 
      0.300000000000       0.031814752439       0.007638046274 2.000000000000 
      0.300000000000       0.032932373094       0.007906363254 2.000000000000 
      0.300000000000       0.033948391871       0.008150287782 2.000000000000 
      0.300000000000       0.034872045305       0.008372037353 2.000000000000 
      0.300000000000       0.035711730246       0.008573627873 2.000000000000 
      0.300000000000       0.036475080193       0.008756891982 2.000000000000 
      0.300000000000       0.037169034690       0.008923495719 2.000000000000 
      0.300000000000       0.037799902416       0.009074953661 2.000000000000 
      0.300000000000       0.038373418530       0.009212642700 2.000000000000 
      0.300000000000       0.026520503446       0.004200435091 2.000000000000 
      0.300000000000       0.028182589747       0.004463683696 2.000000000000 
      0.300000000000       0.029693577295       0.004703000611 2.000000000000 
      0.300000000000       0.031067202339       0.004920561443 2.000000000000 
      0.300000000000       0.032315952380       0.005118344019 2.000000000000 
      0.300000000000       0.033451179691       0.005298146361 2.000000000000 
      0.300000000000       0.034483204519       0.005461603037 2.000000000000 
      0.300000000000       0.035421408909       0.005610200015 2.000000000000 
      0.300000000000       0.036274321991       0.005745288177 2.000000000000 
      0.300000000000       0.037049697521       0.005868095598 2.000000000000 
      0.300000000000       0.037754584367       0.005979738708 2.000000000000 
      0.300000000000       0.038395390590       0.006081232446 2.000000000000 
      0.300000000000       0.038977941703       0.006173499479 2.000000000000 
      0.300000000000       0.026768311924       0.002106711833 2.000000000000 
      0.300000000000       0.028445928816       0.002238743142 2.000000000000 
      0.300000000000       0.029971035083       0.002358771606 2.000000000000 
      0.300000000000       0.031357495326       0.002467888392 2.000000000000 
      0.300000000000       0.032617913729       0.002567085471 2.000000000000 
      0.300000000000       0.033763748642       0.002657264635 2.000000000000 
      0.300000000000       0.034805416745       0.002739245693 2.000000000000 
      0.300000000000       0.035752387748       0.002813773928 2.000000000000 
      0.300000000000       0.036613270479       0.002881526870 2.000000000000 
      0.300000000000       0.037395891144       0.002943120453 2.000000000000 
      0.300000000000       0.038107364475       0.002999114621 2.000000000000 
      0.300000000000       0.038754158414       0.003050018410 2.000000000000 
      0.300000000000       0.039342152904       0.003096294582 2.000000000000 
      0.300000000000       0.026851084858      -0.000000000005 2.000000000000 
      0.300000000000       0.028533889274      -0.000000000008 2.000000000000 
      0.300000000000       0.030063711472      -0.000000000010 2.000000000000 
      0.300000000000       0.031454458926      -0.000000000012 2.000000000000 
      0.300000000000       0.032718774793      -0.000000000012 2.000000000000 
      0.300000000000       0.033868152855      -0.000000000012 2.000000000000 
      0.300000000000       0.034913042002      -0.000000000012 2.000000000000 
      0.300000000000       0.035862941228      -0.000000000011 2.000000000000 
      0.300000000000       0.036726485979      -0.000000000010 2.000000000000 
      0.300000000000       0.037511526662      -0.000000000008 2.000000000000 
      0.300000000000       0.038225200010      -0.000000000006 2.000000000000 
      0.300000000000       0.038873993964      -0.000000000004 2.000000000000 
      0.300000000000       0.039463806649      -0.000000000002 2.000000000000 
      0.300000000000       0.026768311924      -0.002106711842 2.000000000000 
      0.300000000000       0.028445928817      -0.002238743158 2.000000000000 
      0.300000000000       0.029971035084      -0.002358771627 2.000000000000 
      0.300000000000       0.031357495327      -0.002467888416 2.000000000000 
      0.300000000000       0.032617913730      -0.002567085496 2.000000000000 
      0.300000000000       0.033763748643      -0.002657264659 2.000000000000 
      0.300000000000       0.034805416746      -0.002739245716 2.000000000000 
      0.300000000000       0.035752387749      -0.002813773950 2.000000000000 
      0.300000000000       0.036613270480      -0.002881526889 2.000000000000 
      0.300000000000       0.037395891144      -0.002943120469 2.000000000000 
      0.300000000000       0.038107364476      -0.002999114633 2.000000000000 
      0.300000000000       0.038754158414      -0.003050018418 2.000000000000 
      0.300000000000       0.039342152904      -0.003096294586 2.000000000000 
      0.300000000000       0.026520503447      -0.004200435100 2.000000000000 
      0.300000000000       0.028182589749      -0.004463683712 2.000000000000 
      0.300000000000       0.029693577297      -0.004703000632 2.000000000000 
      0.300000000000       0.031067202342      -0.004920561467 2.000000000000 
      0.300000000000       0.032315952383      -0.005118344044 2.000000000000 
      0.300000000000       0.033451179693      -0.005298146386 2.000000000000 
      0.300000000000       0.034483204522      -0.005461603060 2.000000000000 
      0.300000000000       0.035421408911      -0.005610200037 2.000000000000 
      0.300000000000       0.036274321993      -0.005745288196 2.000000000000 
      0.300000000000       0.037049697523      -0.005868095614 2.000000000000 
      0.300000000000       0.037754584368      -0.005979738721 2.000000000000 
      0.300000000000       0.038395390591      -0.006081232454 2.000000000000 
      0.300000000000       0.038977941703      -0.006173499484 2.000000000000 
      0.300000000000       0.026109187246      -0.006268261279 2.000000000000 
      0.300000000000       0.027745495644      -0.006661104172 2.000000000000 
      0.300000000000       0.029233048733      -0.007018234074 2.000000000000 
      0.300000000000       0.030585369723      -0.007342897621 2.000000000000 
      0.300000000000       0.031814752443      -0.007638046299 2.000000000000 
      0.300000000000       0.032932373097      -0.007906363279 2.000000000000 
      0.300000000000       0.033948391874      -0.008150287805 2.000000000000 
      0.300000000000       0.034872045309      -0.008372037375 2.000000000000 
      0.300000000000       0.035711730249      -0.008573627892 2.000000000000 
      0.300000000000       0.036475080195      -0.008756891998 2.000000000000 
      0.300000000000       0.037169034692      -0.008923495731 2.000000000000 
      0.300000000000       0.037799902417      -0.009074953670 2.000000000000 
      0.300000000000       0.038373418531      -0.009212642705 2.000000000000 
      0.300000000000       0.025536899224      -0.008297441543 2.000000000000 
      0.300000000000       0.027137341331      -0.008817456710 2.000000000000 
      0.300000000000       0.028592288702      -0.009290197769 2.000000000000 
      0.300000000000       0.029914968130      -0.009719962369 2.000000000000 
      0.300000000000       0.031117403974      -0.010110657459 2.000000000000 
      0.300000000000       0.032210527470      -0.010465834813 2.000000000000 
      0.300000000000       0.033204276102      -0.010788723316 2.000000000000 
      0.300000000000       0.034107683950      -0.011082258319 2.000000000000 
      0.300000000000       0.034928963813      -0.011349108321 2.000000000000 
      0.300000000000       0.035675581869      -0.011591699232 2.000000000000 
      0.300000000000       0.036354325558      -0.011812236423 2.000000000000 
      0.300000000000       0.036971365275      -0.012012724778 2.000000000000 
      0.300000000000       0.037532310472      -0.012194986920 2.000000000000 
      0.300000000000       0.024807167727      -0.010275465321 2.000000000000 
      0.300000000000       0.026361876286      -0.010919446695 2.000000000000 
      0.300000000000       0.027775247703      -0.011504884307 2.000000000000 
      0.300000000000       0.029060130810      -0.012037100317 2.000000000000 
      0.300000000000       0.030228206363      -0.012520933053 2.000000000000 
      0.300000000000       0.031290093229      -0.012960780995 2.000000000000 
      0.300000000000       0.032255444926      -0.013360642760 2.000000000000 
      0.300000000000       0.033133037379      -0.013724153455 2.000000000000 
      0.300000000000       0.033930848699      -0.014054617723 2.000000000000 
      0.300000000000       0.034656131718      -0.014355039784 2.000000000000 
      0.300000000000       0.035315479917      -0.014628150749 2.000000000000 
      0.300000000000       0.035914887371      -0.014876433444 2.000000000000 
      0.300000000000       0.036459803239      -0.015102144985 2.000000000000 
      0.300000000000       0.023924491791      -0.012190137438 2.000000000000 
      0.300000000000       0.025423881506      -0.012954114660 2.000000000000 
      0.300000000000       0.026786963066      -0.013648639406 2.000000000000 
      0.300000000000       0.028026128121      -0.014280025539 2.000000000000 
      0.300000000000       0.029152641807      -0.014854012932 2.000000000000 
      0.300000000000       0.030176745159      -0.015375819653 2.000000000000 
      0.300000000000       0.031107748206      -0.015850189398 2.000000000000 
      0.300000000000       0.031954114613      -0.016281434622 2.000000000000 
      0.300000000000       0.032723538620      -0.016673475733 2.000000000000 
      0.300000000000       0.033423014990      -0.017029876744 2.000000000000 
      0.300000000000       0.034058902599      -0.017353877662 2.000000000000 
      0.300000000000       0.034636982244      -0.017648423951 2.000000000000 
      0.300000000000       0.035162509195      -0.017916193305 2.000000000000 
      0.300000000000       0.022894313407      -0.014029653304 2.000000000000 
      0.300000000000       0.024329140043      -0.014908916200 2.000000000000 
      0.300000000000       0.025633527894      -0.015708246105 2.000000000000 
      0.300000000000       0.026819335032      -0.016434909655 2.000000000000 
      0.300000000000       0.027897341521      -0.017095512882 2.000000000000 
      0.300000000000       0.028877347420      -0.017696061269 2.000000000000 
      0.300000000000       0.029768261875      -0.018242014349 2.000000000000 
      0.300000000000       0.030578184106      -0.018738335329 2.000000000000 
      0.300000000000       0.031314477044      -0.019189536221 2.000000000000 
      0.300000000000       0.031983834260      -0.019599718850 2.000000000000 
      0.300000000000       0.032592340821      -0.019972612148 2.000000000000 
      0.300000000000       0.033145528604      -0.020311606055 2.000000000000 
      0.300000000000       0.033648426588      -0.020619782335 2.000000000000 
      0.300000000000       0.021722983969      -0.015782671692 2.000000000000 
      0.300000000000       0.023084401341      -0.016771799315 2.000000000000 
      0.300000000000       0.024322053499      -0.017671006244 2.000000000000 
      0.300000000000       0.025447191823      -0.018488467088 2.000000000000 
      0.300000000000       0.026470044847      -0.019231613310 2.000000000000 
      0.300000000000       0.027399911232      -0.019907200784 2.000000000000 
      0.300000000000       0.028245244309      -0.020521371214 2.000000000000 
      0.300000000000       0.029013728925      -0.021079707969 2.000000000000 
      0.300000000000       0.029712351304      -0.021587286837 2.000000000000 
      0.300000000000       0.030347462557      -0.022048722171 2.000000000000 
      0.300000000000       0.030924836424      -0.022468208839 2.000000000000 
      0.300000000000       0.031449721758      -0.022849560354 2.000000000000 
      0.300000000000       0.031926890243      -0.023196243550 2.000000000000 
      0.300000000000       0.020417725110      -0.017438384661 2.000000000000 
      0.300000000000       0.021697339629      -0.018531278709 2.000000000000 
      0.300000000000       0.022860625555      -0.019524818752 2.000000000000 
      0.300000000000       0.023918158216      -0.020428036973 2.000000000000 
      0.300000000000       0.024879551544      -0.021249144447 2.000000000000 
      0.300000000000       0.025753545479      -0.021995605785 2.000000000000 
      0.300000000000       0.026548085420      -0.022674207002 2.000000000000 
      0.300000000000       0.027270394457      -0.023291117200 2.000000000000 
      0.300000000000       0.027927039037      -0.023851944651 2.000000000000 
      0.300000000000       0.028523988655      -0.024361787789 2.000000000000 
      0.300000000000       0.029066670126      -0.024825281551 2.000000000000 
      0.300000000000       0.029560016918      -0.025246639515 2.000000000000 
      0.300000000000       0.030008514002      -0.025629692210 2.000000000000 
      0.300000000000       0.018986584187      -0.018986584190 2.000000000000 
      0.300000000000       0.020176506602      -0.020176506608 2.000000000000 
      0.300000000000       0.021258254253      -0.021258254261 2.000000000000 
      0.300000000000       0.022241661209      -0.022241661218 2.000000000000 
      0.300000000000       0.023135667533      -0.023135667542 2.000000000000 
      0.300000000000       0.023948400554      -0.023948400563 2.000000000000 
      0.300000000000       0.024687248756      -0.024687248765 2.000000000000 