TITLE      =  Unstructured grid data
VARIABLES  =  "x0" "x1" "x2" "Phi"
ZONE   T="P0 ZONE0 Hexa", N=14800, E=12876, F=FEPOINT, ET=BRICK, SOLUTIONTIME=0
      0.000000000000       0.000000000000       0.040000000000 0.999999999906 
      0.004536388079       0.000000000000       0.040000000000 -0.000000020898 
      0.009299595561       0.000000000000       0.040000000000 0.000000014463 
      0.014300963418       0.000000000000       0.040000000000 0.000000001560 
      0.019552399667       0.000000000000       0.040000000000 0.000000008454 
      0.025066407729       0.000000000000       0.040000000000 0.000000052819 
      0.030856116194       0.000000000000       0.040000000000 0.000000031431 
      0.036935310083       0.000000000000       0.040000000000 0.000000019760 
      0.043318463665       0.000000000000       0.040000000000 0.000000008021 
      0.050020774927       0.000000000000       0.040000000000 0.000000003979 
      0.057058201752       0.000000000000       0.040000000000 0.000000001134 
      0.064447499918       0.000000000000       0.040000000000 0.000000000429 
      0.072206262993       0.000000000000       0.040000000000 0.000000000079 
      0.080352964221       0.000000000000       0.040000000000 0.000000000019 
      0.088907000511       0.000000000000       0.040000000000 0.000000000001 
      0.097888738615       0.000000000000       0.040000000000 -0.000000004595 
      0.107319563624       0.000000000000       0.040000000000 -0.000000004771 
      0.117221929884       0.000000000000       0.040000000000 0.000000000060 
      0.000000000000       0.000000000000       0.025000000000 1.000000000000 
      0.097888738615       0.000000000000       0.025000000000 -0.000000000008 
      0.088907000511       0.000000000000       0.025000000000 -0.000000000006 
      0.080352964221       0.000000000000       0.025000000000 -0.000000000002 
      0.072206262993       0.000000000000       0.025000000000 -0.000000000001 
      0.064447499918       0.000000000000       0.025000000000 0.000000000001 
      0.057058201752       0.000000000000       0.025000000000 -0.000000000003 
      0.050020774927       0.000000000000       0.025000000000 0.000000000006 
      0.043318463665       0.000000000000       0.025000000000 -0.000000000012 
      0.036935310083       0.000000000000       0.025000000000 0.000000000012 
      0.030856116194       0.000000000000       0.025000000000 -0.000000000001 
      0.025066407729       0.000000000000       0.025000000000 -0.000000000062 
      0.019552399667       0.000000000000       0.025000000000 0.000000000114 
      0.014300963418       0.000000000000       0.025000000000 -0.000000000265 
      0.009299595561       0.000000000000       0.025000000000 0.000000000409 
      0.004536388079       0.000000000000       0.025000000000 -0.000000000133 
      0.000000000000      -0.003138363829       0.039876693349 1.000000000000 
      0.000000000000      -0.006257378602       0.039507533624 1.000000000000 
      0.000000000000      -0.001961477393       0.024922933343 1.000000000000 
      0.000000000000      -0.003910861626       0.024692208515 1.000000000000 
      0.000000000000      -0.005836134096       0.024309248010 1.000000000000 
      0.000000000000      -0.007725424859       0.023776412907 1.000000000000 
      0.000000000000       0.007725424859      -0.023776412907 1.000000000000 
      0.000000000000       0.009567085809      -0.023096988313 1.000000000000 
      0.000000000000       0.011349762494      -0.022275163105 1.000000000000 
      0.000000000000       0.013062464118      -0.021316004109 1.000000000000 
      0.000000000000       0.014694631307      -0.020225424859 1.000000000000 
      0.000000000000       0.016236201208      -0.019010149140 1.000000000000 
      0.000000000000       0.017677669530      -0.017677669530 1.000000000000 
      0.000000000000       0.019010149140      -0.016236201208 1.000000000000 
      0.000000000000       0.020225424859      -0.014694631307 1.000000000000 
      0.000000000000       0.021316004109      -0.013062464118 1.000000000000 
      0.000000000000       0.022275163105      -0.011349762494 1.000000000000 
      0.000000000000       0.023096988313      -0.009567085809 1.000000000000 
      0.000000000000       0.023776412907      -0.007725424859 1.000000000000 
      0.000000000000       0.024309248010      -0.005836134096 1.000000000000 
      0.000000000000       0.024692208515      -0.003910861626 1.000000000000 
      0.000000000000       0.024922933343      -0.001961477393 1.000000000000 
      0.000000000000       0.025000000000      -0.000000000000 1.000000000000 
      0.000000000000       0.024922933343       0.001961477393 1.000000000000 
      0.000000000000       0.024692208515       0.003910861626 1.000000000000 
      0.000000000000       0.024309248010       0.005836134096 1.000000000000 
      0.000000000000       0.023776412907       0.007725424859 1.000000000000 
      0.000000000000       0.023096988313       0.009567085809 1.000000000000 
      0.000000000000       0.022275163105       0.011349762494 1.000000000000 
      0.000000000000       0.021316004109       0.013062464118 1.000000000000 
      0.000000000000       0.020225424859       0.014694631307 1.000000000000 
      0.000000000000       0.019010149140       0.016236201208 1.000000000000 
      0.000000000000       0.017677669530       0.017677669530 1.000000000000 
      0.000000000000       0.016236201208       0.019010149140 1.000000000000 
      0.000000000000       0.014694631307       0.020225424859 1.000000000000 
      0.000000000000       0.013062464118       0.021316004109 1.000000000000 
      0.000000000000       0.011349762494       0.022275163105 1.000000000000 
      0.000000000000       0.009567085809       0.023096988313 1.000000000000 
      0.000000000000       0.007725424859       0.023776412907 1.000000000000 
      0.000000000000       0.005836134096       0.024309248010 1.000000000000 
      0.000000000000       0.003910861626       0.024692208515 1.000000000000 
      0.000000000000       0.001961477393       0.024922933343 1.000000000000 
      0.000000000000       0.012360679775      -0.038042260652 1.000000000081 
      0.000000000000       0.015307337295      -0.036955181300 1.000000000021 
      0.000000000000       0.018159619990      -0.035640260967 0.999999999980 
      0.000000000000       0.020899942589      -0.034105606574 1.000000000000 
      0.000000000000       0.023511410092      -0.032360679775 1.000000000000 
      0.000000000000       0.025977921933      -0.030416238624 1.000000000000 
      0.000000000000       0.028284271247      -0.028284271247 1.000000000001 
      0.000000000000       0.030416238624      -0.025977921933 1.000000000003 
      0.000000000000       0.032360679775      -0.023511410092 1.000000000009 
      0.000000000000       0.034105606574      -0.020899942589 1.000000000022 
      0.000000000000       0.035640260967      -0.018159619990 1.000000000049 
      0.000000000000       0.036955181300      -0.015307337295 1.000000000099 
      0.000000000000       0.038042260652      -0.012360679775 1.000000000185 
      0.000000000000       0.038894796816      -0.009337814554 1.000000000323 
      0.000000000000       0.039507533624      -0.006257378602 1.000000000527 
      0.000000000000       0.039876693349      -0.003138363829 1.000000000811 
      0.000000000000       0.040000000000      -0.000000000000 1.000000001179 
      0.000000000000       0.039876693349       0.003138363829 1.000000001628 
      0.000000000000       0.039507533624       0.006257378602 1.000000002140 
      0.000000000000       0.038894796816       0.009337814554 1.000000002684 
      0.000000000000       0.038042260652       0.012360679775 1.000000003217 
      0.000000000000       0.036955181300       0.015307337295 1.000000003688 
      0.000000000000       0.035640260967       0.018159619990 1.000000004047 
      0.000000000000       0.034105606574       0.020899942589 1.000000004249 
      0.000000000000       0.032360679775       0.023511410092 1.000000004265 
      0.000000000000       0.030416238624       0.025977921933 1.000000004085 
      0.000000000000       0.028284271247       0.028284271247 1.000000003721 
      0.000000000000       0.025977921933       0.030416238624 1.000000003205 
      0.000000000000       0.023511410092       0.032360679775 1.000000002591 
      0.000000000000       0.020899942589       0.034105606574 1.000000001942 
      0.000000000000       0.018159619990       0.035640260967 1.000000001324 
      0.000000000000       0.015307337295       0.036955181300 1.000000000800 
      0.000000000000       0.012360679775       0.038042260652 1.000000000422 
      0.000000000000       0.009337814554       0.038894796816 1.000000000054 
      0.000000000000       0.006257378602       0.039507533624 1.000000000095 
      0.000000000000       0.003138363829       0.039876693349 1.000000000085 
      0.000000000000       0.000000000000       0.026851084853 1.000000000000 
      0.000000000000       0.000000000000       0.028533889266 1.000000000000 
      0.000000000000       0.000000000000       0.030063711462 1.000000000000 
      0.000000000000       0.000000000000       0.031454458914 1.000000000000 
      0.000000000000       0.000000000000       0.032718774781 1.000000000000 
      0.000000000000       0.000000000000       0.033868152842 1.000000000000 
      0.000000000000       0.000000000000       0.034913041991 0.999999999999 
      0.000000000000       0.000000000000       0.035862941217 0.999999999999 
      0.000000000000       0.000000000000       0.036726485969 1.000000000000 
      0.000000000000       0.000000000000       0.037511526654 1.000000000008 
      0.000000000000       0.000000000000       0.038225200004 1.000000000032 
      0.000000000000       0.000000000000       0.038873993960 0.999999999934 
      0.000000000000       0.000000000000       0.039463806647 0.999999999863 
      0.097888738615       0.000000000000       0.026851084853 -0.000000000001 
      0.088907000511       0.000000000000       0.026851084853 -0.000000000000 
      0.080352964221       0.000000000000       0.026851084853 -0.000000000000 
      0.072206262993       0.000000000000       0.026851084853 0.000000000000 
      0.064447499918       0.000000000000       0.026851084853 -0.000000000000 
      0.057058201752       0.000000000000       0.026851084853 0.000000000000 
      0.050020774927       0.000000000000       0.026851084853 0.000000000001 
      0.043318463665       0.000000000000       0.026851084853 -0.000000000003 
      0.036935310083       0.000000000000       0.026851084853 0.000000000011 
      0.030856116194       0.000000000000       0.026851084853 -0.000000000036 
      0.025066407729       0.000000000000       0.026851084853 0.000000000067 
      0.019552399667       0.000000000000       0.026851084853 -0.000000000134 
      0.014300963418       0.000000000000       0.026851084853 0.000000000141 
      0.009299595561       0.000000000000       0.026851084853 -0.000000000228 
      0.004536388079       0.000000000000       0.026851084853 -0.000000000239 
      0.097888738615       0.000000000000       0.028533889266 0.000000000001 
      0.088907000511       0.000000000000       0.028533889266 -0.000000000000 
      0.080352964221       0.000000000000       0.028533889266 -0.000000000001 
      0.072206262993       0.000000000000       0.028533889266 -0.000000000000 
      0.064447499918       0.000000000000       0.028533889266 0.000000000000 
      0.057058201752       0.000000000000       0.028533889266 -0.000000000000 
      0.050020774927       0.000000000000       0.028533889266 -0.000000000001 
      0.043318463665       0.000000000000       0.028533889266 0.000000000005 
      0.036935310083       0.000000000000       0.028533889266 -0.000000000020 
      0.030856116194       0.000000000000       0.028533889266 0.000000000065 
      0.025066407729       0.000000000000       0.028533889266 -0.000000000139 
      0.019552399667       0.000000000000       0.028533889266 0.000000000257 
      0.014300963418       0.000000000000       0.028533889266 -0.000000000316 
      0.009299595561       0.000000000000       0.028533889266 0.000000000491 
      0.004536388079       0.000000000000       0.028533889266 0.000000000229 
      0.097888738615       0.000000000000       0.030063711462 -0.000000000005 
      0.088907000511       0.000000000000       0.030063711462 0.000000000001 
      0.080352964221       0.000000000000       0.030063711462 0.000000000003 
      0.072206262993       0.000000000000       0.030063711462 0.000000000000 
      0.064447499918       0.000000000000       0.030063711462 -0.000000000000 
      0.057058201752       0.000000000000       0.030063711462 0.000000000001 
      0.050020774927       0.000000000000       0.030063711462 -0.000000000000 
      0.043318463665       0.000000000000       0.030063711462 -0.000000000004 
      0.036935310083       0.000000000000       0.030063711462 0.000000000025 
      0.030856116194       0.000000000000       0.030063711462 -0.000000000086 
      0.025066407729       0.000000000000       0.030063711462 0.000000000205 
      0.019552399667       0.000000000000       0.030063711462 -0.000000000388 
      0.014300963418       0.000000000000       0.030063711462 0.000000000532 
      0.009299595561       0.000000000000       0.030063711462 -0.000000000820 
      0.004536388079       0.000000000000       0.030063711462 -0.000000000232 
      0.097888738615       0.000000000000       0.031454458914 0.000000000005 
      0.088907000511       0.000000000000       0.031454458914 -0.000000000009 
      0.080352964221       0.000000000000       0.031454458914 -0.000000000011 
      0.072206262993       0.000000000000       0.031454458914 -0.000000000000 
      0.064447499918       0.000000000000       0.031454458914 0.000000000001 
      0.057058201752       0.000000000000       0.031454458914 -0.000000000002 
      0.050020774927       0.000000000000       0.031454458914 0.000000000004 
      0.043318463665       0.000000000000       0.031454458914 -0.000000000002 
      0.036935310083       0.000000000000       0.031454458914 -0.000000000016 
      0.030856116194       0.000000000000       0.031454458914 0.000000000086 
      0.025066407729       0.000000000000       0.031454458914 -0.000000000240 
      0.019552399667       0.000000000000       0.031454458914 0.000000000499 
      0.014300963418       0.000000000000       0.031454458914 -0.000000000762 
      0.009299595561       0.000000000000       0.031454458914 0.000000001228 
      0.004536388079       0.000000000000       0.031454458914 0.000000000171 
      0.107319563624       0.000000000000       0.032718774781 0.000000000004 
      0.097888738615       0.000000000000       0.032718774781 -0.000000000061 
      0.088907000511       0.000000000000       0.032718774781 -0.000000000035 
      0.080352964221       0.000000000000       0.032718774781 0.000000000010 
      0.072206262993       0.000000000000       0.032718774781 0.000000000000 
      0.064447499918       0.000000000000       0.032718774781 -0.000000000002 
      0.057058201752       0.000000000000       0.032718774781 0.000000000005 
      0.050020774927       0.000000000000       0.032718774781 -0.000000000012 
      0.043318463665       0.000000000000       0.032718774781 0.000000000020 
      0.036935310083       0.000000000000       0.032718774781 -0.000000000016 
      0.030856116194       0.000000000000       0.032718774781 -0.000000000038 
      0.025066407729       0.000000000000       0.032718774781 0.000000000200 
      0.019552399667       0.000000000000       0.032718774781 -0.000000000526 
      0.014300963418       0.000000000000       0.032718774781 0.000000000914 
      0.009299595561       0.000000000000       0.032718774781 -0.000000001701 
      0.004536388079       0.000000000000       0.032718774781 -0.000000000007 
      0.107319563624       0.000000000000       0.033868152842 -0.000000000214 
      0.097888738615       0.000000000000       0.033868152842 -0.000000000152 
      0.088907000511       0.000000000000       0.033868152842 -0.000000000183 
      0.080352964221       0.000000000000       0.033868152842 -0.000000000132 
      0.072206262993       0.000000000000       0.033868152842 -0.000000000000 
      0.064447499918       0.000000000000       0.033868152842 0.000000000003 
      0.057058201752       0.000000000000       0.033868152842 -0.000000000010 
      0.050020774927       0.000000000000       0.033868152842 0.000000000026 
      0.043318463665       0.000000000000       0.033868152842 -0.000000000055 
      0.036935310083       0.000000000000       0.033868152842 0.000000000089 
      0.030856116194       0.000000000000       0.033868152842 -0.000000000092 
      0.025066407729       0.000000000000       0.033868152842 -0.000000000040 
      0.019552399667       0.000000000000       0.033868152842 0.000000000307 
      0.014300963418       0.000000000000       0.033868152842 -0.000000000960 
      0.009299595561       0.000000000000       0.033868152842 0.000000001857 
      0.004536388079       0.000000000000       0.033868152842 -0.000000000556 
      0.117221929884       0.000000000000       0.034913041991 -0.000000000546 
      0.107319563624       0.000000000000       0.034913041991 -0.000000000322 
      0.097888738615       0.000000000000       0.034913041991 -0.000000000665 
      0.088907000511       0.000000000000       0.034913041991 -0.000000000699 
      0.080352964221       0.000000000000       0.034913041991 -0.000000000156 
      0.072206262993       0.000000000000       0.034913041991 0.000000000001 
      0.064447499918       0.000000000000       0.034913041991 -0.000000000004 
      0.057058201752       0.000000000000       0.034913041991 0.000000000016 
      0.050020774927       0.000000000000       0.034913041991 -0.000000000048 
      0.043318463665       0.000000000000       0.034913041991 0.000000000110 
      0.036935310083       0.000000000000       0.034913041991 -0.000000000202 
      0.030856116194       0.000000000000       0.034913041991 0.000000000337 
      0.025066407729       0.000000000000       0.034913041991 -0.000000000390 
      0.019552399667       0.000000000000       0.034913041991 -0.000000000031 
      0.014300963418       0.000000000000       0.034913041991 0.000000000168 
      0.009299595561       0.000000000000       0.034913041991 -0.000000002264 
      0.004536388079       0.000000000000       0.034913041991 0.000000000770 
      0.117221929884       0.000000000000       0.035862941217 -0.000000000274 
      0.107319563624       0.000000000000       0.035862941217 -0.000000000831 
      0.097888738615       0.000000000000       0.035862941217 -0.000000001234 
      0.088907000511       0.000000000000       0.035862941217 -0.000000000543 
      0.080352964221       0.000000000000       0.035862941217 0.000000000000 
      0.072206262993       0.000000000000       0.035862941217 -0.000000000001 
      0.064447499918       0.000000000000       0.035862941217 0.000000000005 
      0.057058201752       0.000000000000       0.035862941217 -0.000000000025 
      0.050020774927       0.000000000000       0.035862941217 0.000000000065 
      0.043318463665       0.000000000000       0.035862941217 -0.000000000178 
      0.036935310083       0.000000000000       0.035862941217 0.000000000370 
      0.030856116194       0.000000000000       0.035862941217 -0.000000000557 
      0.025066407729       0.000000000000       0.035862941217 0.000000001037 
      0.019552399667       0.000000000000       0.035862941217 -0.000000000661 
      0.014300963418       0.000000000000       0.035862941217 -0.000000000030 
      0.009299595561       0.000000000000       0.035862941217 -0.000000000551 
      0.004536388079       0.000000000000       0.035862941217 -0.000000002812 
      0.117221929884       0.000000000000       0.036726485969 -0.000000000616 
      0.107319563624       0.000000000000       0.036726485969 -0.000000001024 
      0.097888738615       0.000000000000       0.036726485969 -0.000000000694 
      0.088907000511       0.000000000000       0.036726485969 -0.000000000002 
      0.080352964221       0.000000000000       0.036726485969 -0.000000000000 
      0.072206262993       0.000000000000       0.036726485969 -0.000000000000 
      0.064447499918       0.000000000000       0.036726485969 -0.000000000009 
      0.057058201752       0.000000000000       0.036726485969 0.000000000009 
      0.050020774927       0.000000000000       0.036726485969 -0.000000000108 
      0.043318463665       0.000000000000       0.036726485969 0.000000000143 
      0.036935310083       0.000000000000       0.036726485969 -0.000000000515 
      0.030856116194       0.000000000000       0.036726485969 0.000000000900 
      0.025066407729       0.000000000000       0.036726485969 -0.000000000920 
      0.019552399667       0.000000000000       0.036726485969 0.000000003081 
      0.014300963418       0.000000000000       0.036726485969 0.000000000207 
      0.009299595561       0.000000000000       0.036726485969 0.000000000288 
      0.004536388079       0.000000000000       0.036726485969 -0.000000000235 
      0.117221929884       0.000000000000       0.037511526654 -0.000000000405 
      0.107319563624       0.000000000000       0.037511526654 -0.000000001925 
      0.097888738615       0.000000000000       0.037511526654 -0.000000001652 
      0.088907000511       0.000000000000       0.037511526654 0.000000000000 
      0.080352964221       0.000000000000       0.037511526654 -0.000000000001 
      0.072206262993       0.000000000000       0.037511526654 -0.000000000004 
      0.064447499918       0.000000000000       0.037511526654 -0.000000000022 
      0.057058201752       0.000000000000       0.037511526654 -0.000000000074 
      0.050020774927       0.000000000000       0.037511526654 -0.000000000148 
      0.043318463665       0.000000000000       0.037511526654 -0.000000000508 
      0.036935310083       0.000000000000       0.037511526654 -0.000000000345 
      0.030856116194       0.000000000000       0.037511526654 -0.000000001417 
      0.025066407729       0.000000000000       0.037511526654 0.000000000862 
      0.019552399667       0.000000000000       0.037511526654 0.000000000246 
      0.014300963418       0.000000000000       0.037511526654 0.000000006678 
      0.009299595561       0.000000000000       0.037511526654 0.000000000770 
      0.004536388079       0.000000000000       0.037511526654 0.000000000725 
      0.117221929884       0.000000000000       0.038225200004 0.000000000244 
      0.107319563624       0.000000000000       0.038225200004 -0.000000001619 
      0.097888738615       0.000000000000       0.038225200004 -0.000000001663 
      0.088907000511       0.000000000000       0.038225200004 0.000000000000 
      0.080352964221       0.000000000000       0.038225200004 0.000000000003 
      0.072206262993       0.000000000000       0.038225200004 0.000000000006 
      0.064447499918       0.000000000000       0.038225200004 -0.000000000043 
      0.057058201752       0.000000000000       0.038225200004 -0.000000000286 
      0.050020774927       0.000000000000       0.038225200004 -0.000000000602 
      0.043318463665       0.000000000000       0.038225200004 -0.000000001710 
      0.036935310083       0.000000000000       0.038225200004 -0.000000002593 
      0.030856116194       0.000000000000       0.038225200004 -0.000000005521 
      0.025066407729       0.000000000000       0.038225200004 -0.000000004521 
      0.019552399667       0.000000000000       0.038225200004 -0.000000004138 
      0.014300963418       0.000000000000       0.038225200004 0.000000007178 
      0.009299595561       0.000000000000       0.038225200004 0.000000008141 
      0.004536388079       0.000000000000       0.038225200004 -0.000000000124 
      0.117221929884       0.000000000000       0.038873993960 -0.000000023057 
      0.107319563624       0.000000000000       0.038873993960 -0.000000011382 
      0.097888738615       0.000000000000       0.038873993960 -0.000000000104 
      0.088907000511       0.000000000000       0.038873993960 0.000000000002 
      0.080352964221       0.000000000000       0.038873993960 0.000000000015 
      0.072206262993       0.000000000000       0.038873993960 0.000000000119 
      0.064447499918       0.000000000000       0.038873993960 0.000000000237 
      0.057058201752       0.000000000000       0.038873993960 0.000000001281 
      0.050020774927       0.000000000000       0.038873993960 0.000000002185 
      0.043318463665       0.000000000000       0.038873993960 0.000000008537 
      0.036935310083       0.000000000000       0.038873993960 0.000000012292 
      0.030856116194       0.000000000000       0.038873993960 0.000000030441 
      0.025066407729       0.000000000000       0.038873993960 0.000000038488 
      0.019552399667       0.000000000000       0.038873993960 0.000000053581 
      0.014300963418       0.000000000000       0.038873993960 0.000000026995 
      0.009299595561       0.000000000000       0.038873993960 0.000000005853 
      0.004536388079       0.000000000000       0.038873993960 0.000000027146 
      0.117221929884       0.000000000000       0.039463806647 -0.000000022986 
      0.107319563624       0.000000000000       0.039463806647 -0.000000013701 
      0.097888738615       0.000000000000       0.039463806647 -0.000000002356 
      0.088907000511       0.000000000000       0.039463806647 0.000000000003 
      0.080352964221       0.000000000000       0.039463806647 0.000000000022 
      0.072206262993       0.000000000000       0.039463806647 0.000000000146 
      0.064447499918       0.000000000000       0.039463806647 0.000000000497 
      0.057058201752       0.000000000000       0.039463806647 0.000000001989 
      0.050020774927       0.000000000000       0.039463806647 0.000000004893 
      0.043318463665       0.000000000000       0.039463806647 0.000000013250 
      0.036935310083       0.000000000000       0.039463806647 0.000000025510 
      0.030856116194       0.000000000000       0.039463806647 0.000000048728 
      0.025066407729       0.000000000000       0.039463806647 0.000000071524 
      0.019552399667       0.000000000000       0.039463806647 0.000000060994 
      0.014300963418       0.000000000000       0.039463806647 0.000000022944 
      0.009299595561       0.000000000000       0.039463806647 0.000000014006 
      0.004536388079       0.000000000000       0.039463806647 0.000000014437 
      0.000000000000      -0.003096294584       0.039342152902 1.000000000000 
      0.000000000000      -0.006173499481       0.038977941701 1.000000000000 
      0.000000000000      -0.003050018413       0.038754158410 1.000000000000 
      0.000000000000      -0.006081232449       0.038395390587 1.000000000000 
      0.000000000000      -0.002999114626       0.038107364470 1.000000000000 
      0.000000000000      -0.005979738714       0.037754584361 1.000000000000 
      0.000000000000      -0.002943120461       0.037395891136 1.000000000000 
      0.000000000000      -0.005868095605       0.037049697514 1.000000000000 
      0.000000000000      -0.002881526878       0.036613270470 1.000000000000 
      0.000000000000      -0.005745288185       0.036274321983 1.000000000000 
      0.000000000000      -0.002813773938       0.035752387738 1.000000000000 
      0.000000000000      -0.005610200024       0.035421408899 1.000000000000 
      0.000000000000      -0.002739245704       0.034805416734 1.000000000000 
      0.000000000000      -0.005461603047       0.034483204509 1.000000000000 
      0.000000000000      -0.002657264646       0.033763748630 1.000000000000 
      0.000000000000      -0.005298146372       0.033451179680 1.000000000000 
      0.000000000000      -0.002567085483       0.032617913717 1.000000000000 
      0.000000000000      -0.005118344030       0.032315952370 1.000000000000 
      0.000000000000      -0.002467888403       0.031357495315 1.000000000000 
      0.000000000000      -0.004920561453       0.031067202329 1.000000000000 
      0.000000000000      -0.002358771616       0.029971035073 1.000000000000 
      0.000000000000      -0.004703000620       0.029693577286 1.000000000000 
      0.000000000000      -0.007018234061       0.029233048721 1.000000000000 
      0.000000000000      -0.002238743149       0.028445928809 1.000000000000 
      0.000000000000      -0.004463683703       0.028182589740 1.000000000000 
      0.000000000000      -0.006661104162       0.027745495635 1.000000000000 
      0.000000000000      -0.008817456699       0.027137341322 1.000000000000 
      0.000000000000      -0.002106711837       0.026768311919 1.000000000000 
      0.000000000000      -0.004200435095       0.026520503442 1.000000000000 
      0.000000000000      -0.006268261273       0.026109187241 1.000000000000 
      0.000000000000      -0.008297441537       0.025536899219 1.000000000000 
      0.000000000000       0.012194986917      -0.037532310470 1.000000000150 
      0.000000000000       0.015102144982      -0.036459803236 1.000000000006 
      0.000000000000       0.017916193301      -0.035162509192 0.999999999931 
      0.000000000000       0.020619782331      -0.033648426586 1.000000000000 
      0.000000000000       0.023196243547      -0.031926890240 1.000000000000 
      0.000000000000       0.025629692207      -0.030008514000 1.000000000000 
      0.000000000000       0.027905125292      -0.027905125292 1.000000000001 
      0.000000000000       0.030008514000      -0.025629692207 1.000000000005 
      0.000000000000       0.031926890240      -0.023196243547 1.000000000013 