TITLE      =  Unstructured grid data
VARIABLES  =  "x0" "x1" "x2" "Phi"
ZONE   T="P7 ZONE0 Hexa", N=15536, E=13668, F=FEPOINT, ET=BRICK, SOLUTIONTIME=0
      0.300000000000       0.000000000000       0.040000000000 2.000000000008 
      0.107319563624       0.000000000000       0.040000000000 173.735673660422 
      0.117221929884       0.000000000000       0.040000000000 238.064063261758 
      0.127619414457       0.000000000000       0.040000000000 204.602696352697 
      0.138536773258       0.000000000000       0.040000000000 50.723585984320 
      0.150000000000       0.000000000000       0.040000000000 -0.117208442776 
      0.161463226742       0.000000000000       0.040000000000 -0.115613280954 
      0.172380585543       0.000000000000       0.040000000000 -0.138557464106 
      0.182778070116       0.000000000000       0.040000000000 -0.177431472844 
      0.192680436376       0.000000000000       0.040000000000 -0.066170535291 
      0.202111261385       0.000000000000       0.040000000000 -0.005177879440 
      0.211092999489       0.000000000000       0.040000000000 0.003731036554 
      0.219647035779       0.000000000000       0.040000000000 0.014737309205 
      0.227793737007       0.000000000000       0.040000000000 -0.009705184115 
      0.235552500082       0.000000000000       0.040000000000 -0.009361857656 
      0.242941798248       0.000000000000       0.040000000000 0.006036915574 
      0.249979225073       0.000000000000       0.040000000000 0.005802490593 
      0.256681536335       0.000000000000       0.040000000000 0.004428395402 
      0.263064689917       0.000000000000       0.040000000000 0.004687664732 
      0.269143883806       0.000000000000       0.040000000000 0.002823860218 
      0.274933592271       0.000000000000       0.040000000000 0.002392489779 
      0.280447600333       0.000000000000       0.040000000000 0.000847398490 
      0.285699036582       0.000000000000       0.040000000000 0.000605301744 
      0.290700404439       0.000000000000       0.040000000000 0.000054342107 
      0.295463611921       0.000000000000       0.040000000000 -2.431222607730 
      0.300000000000       0.000000000000       0.025000000000 1.999999999999 
      0.295463611921       0.000000000000       0.025000000000 -36.846414899897 
      0.290700404439       0.000000000000       0.025000000000 -15.454996010749 
      0.285699036582       0.000000000000       0.025000000000 -11.997178803205 
      0.280447600333       0.000000000000       0.025000000000 -1117.862860786193 
      0.274933592271       0.000000000000       0.025000000000 604.951278187884 
      0.269143883806       0.000000000000       0.025000000000 -155.640864785320 
      0.263064689917       0.000000000000       0.025000000000 188.022402219923 
      0.256681536335       0.000000000000       0.025000000000 -155.992831937149 
      0.249979225073       0.000000000000       0.025000000000 93.456338176674 
      0.242941798248       0.000000000000       0.025000000000 -6.430080142626 
      0.235552500082       0.000000000000       0.025000000000 -117.016817858521 
      0.227793737007       0.000000000000       0.025000000000 256.308434163385 
      0.219647035779       0.000000000000       0.025000000000 -402.490271225859 
      0.211092999489       0.000000000000       0.025000000000 513.463429622113 
      0.202111261385       0.000000000000       0.025000000000 -574.607967841824 
      0.192680436376       0.000000000000       0.025000000000 555.720214997650 
      0.182778070116       0.000000000000       0.025000000000 -476.060139069028 
      0.172380585543       0.000000000000       0.025000000000 352.322304037070 
      0.161463226742       0.000000000000       0.025000000000 -188.596331041097 
      0.150000000000       0.000000000000       0.025000000000 155.217508549834 
      0.138536773258       0.000000000000       0.025000000000 -0.685302348988 
      0.127619414457       0.000000000000       0.025000000000 -3.010139108843 
      0.117221929884       0.000000000000       0.025000000000 1063.581097620028 
      0.107319563624       0.000000000000       0.025000000000 5242.530591651947 
      0.097888738615       0.000000000000       0.025000000000 8278.673871536797 
      0.300000000000      -0.003138363829       0.039876693349 2.000000000000 
      0.300000000000      -0.006257378602       0.039507533624 2.000000000000 
      0.300000000000      -0.009337814554       0.038894796816 2.000000000000 
      0.300000000000      -0.012360679775       0.038042260652 2.000000000000 
      0.300000000000      -0.015307337295       0.036955181300 2.000000000000 
      0.300000000000      -0.018159619990       0.035640260967 2.000000000000 
      0.300000000000      -0.020899942589       0.034105606574 2.000000000000 
      0.300000000000      -0.023511410092       0.032360679775 2.000000000000 
      0.300000000000      -0.025977921933       0.030416238624 2.000000000000 
      0.300000000000      -0.028284271247       0.028284271247 2.000000000000 
      0.300000000000      -0.030416238624       0.025977921933 2.000000000000 
      0.300000000000      -0.032360679775       0.023511410092 2.000000000000 
      0.300000000000      -0.034105606574       0.020899942589 2.000000000000 
      0.300000000000      -0.035640260967       0.018159619990 2.000000000000 
      0.300000000000      -0.036955181300       0.015307337295 2.000000000000 
      0.300000000000      -0.038042260652       0.012360679775 2.000000000000 
      0.300000000000      -0.038894796816       0.009337814554 2.000000000000 
      0.300000000000      -0.039507533624       0.006257378602 2.000000000000 
      0.300000000000      -0.039876693349       0.003138363829 2.000000000000 
      0.300000000000      -0.040000000000       0.000000000000 2.000000000000 
      0.300000000000      -0.039876693349      -0.003138363829 2.000000000000 
      0.300000000000      -0.039507533624      -0.006257378602 2.000000000000 
      0.300000000000      -0.038894796816      -0.009337814554 2.000000000000 
      0.300000000000      -0.038042260652      -0.012360679775 2.000000000000 
      0.300000000000      -0.001961477393       0.024922933343 1.999999999997 
      0.300000000000      -0.003910861626       0.024692208515 1.999999999998 
      0.300000000000      -0.005836134096       0.024309248010 2.000000000005 
      0.300000000000      -0.007725424859       0.023776412907 2.000000000004 
      0.300000000000      -0.009567085809       0.023096988313 2.000000000000 
      0.300000000000      -0.011349762494       0.022275163105 1.999999999995 
      0.300000000000      -0.013062464118       0.021316004109 1.999999999994 
      0.300000000000      -0.014694631307       0.020225424859 1.999999999999 
      0.300000000000      -0.016236201208       0.019010149140 1.999999999997 
      0.300000000000      -0.017677669530       0.017677669530 1.999999999999 
      0.300000000000      -0.019010149140       0.016236201208 1.999999999998 
      0.300000000000      -0.020225424859       0.014694631307 1.999999999998 
      0.300000000000      -0.021316004109       0.013062464118 1.999999999999 
      0.300000000000      -0.022275163105       0.011349762494 2.000000000000 
      0.300000000000      -0.023096988313       0.009567085809 2.000000000000 
      0.300000000000      -0.023776412907       0.007725424859 2.000000000000 
      0.300000000000      -0.024309248010       0.005836134096 2.000000000000 
      0.300000000000      -0.024692208515       0.003910861626 2.000000000000 
      0.300000000000      -0.024922933343       0.001961477393 2.000000000000 
      0.300000000000      -0.025000000000       0.000000000000 2.000000000000 
      0.300000000000       0.003910861626       0.024692208515 2.000000000000 
      0.300000000000       0.001961477393       0.024922933343 2.000000000000 
      0.300000000000       0.006257378602       0.039507533624 2.000000000031 
      0.300000000000       0.003138363829       0.039876693349 2.000000000024 
      0.300000000000       0.000000000000       0.039463806647 2.000000000015 
      0.300000000000       0.000000000000       0.038873993960 2.000000000017 
      0.300000000000       0.000000000000       0.038225200004 2.000000000001 
      0.300000000000       0.000000000000       0.037511526654 1.999999999993 
      0.300000000000       0.000000000000       0.036726485969 1.999999999999 
      0.300000000000       0.000000000000       0.035862941217 2.000000000000 
      0.300000000000       0.000000000000       0.034913041991 1.999999999998 
      0.300000000000       0.000000000000       0.033868152842 1.999999999998 
      0.300000000000       0.000000000000       0.032718774781 1.999999999994 
      0.300000000000       0.000000000000       0.031454458914 1.999999999994 
      0.300000000000       0.000000000000       0.030063711462 1.999999999996 
      0.300000000000       0.000000000000       0.028533889266 1.999999999997 
      0.300000000000       0.000000000000       0.026851084853 1.999999999997 
      0.295463611921       0.000000000000       0.026851084853 -41.364987804402 
      0.290700404439       0.000000000000       0.026851084853 -5.700308581981 
      0.285699036582       0.000000000000       0.026851084853 -7.185182102799 
      0.280447600333       0.000000000000       0.026851084853 4.181331862745 
      0.274933592271       0.000000000000       0.026851084853 0.285192250924 
      0.269143883806       0.000000000000       0.026851084853 3.238684420091 
      0.263064689917       0.000000000000       0.026851084853 1.280586376788 
      0.256681536335       0.000000000000       0.026851084853 1.393422697926 
      0.249979225073       0.000000000000       0.026851084853 0.387224755339 
      0.242941798248       0.000000000000       0.026851084853 1.095130453487 
      0.235552500082       0.000000000000       0.026851084853 0.120869280457 
      0.227793737007       0.000000000000       0.026851084853 0.508124218151 
      0.219647035779       0.000000000000       0.026851084853 -0.453426783066 
      0.211092999489       0.000000000000       0.026851084853 -0.053774535423 
      0.202111261385       0.000000000000       0.026851084853 -0.614567766086 
      0.192680436376       0.000000000000       0.026851084853 -0.400194063983 
      0.182778070116       0.000000000000       0.026851084853 1.118128413723 
      0.172380585543       0.000000000000       0.026851084853 -0.151834118774 
      0.161463226742       0.000000000000       0.026851084853 -0.005609196985 
      0.150000000000       0.000000000000       0.026851084853 -0.538241375196 
      0.138536773258       0.000000000000       0.026851084853 -1.872151219206 
      0.127619414457       0.000000000000       0.026851084853 1.012085962759 
      0.117221929884       0.000000000000       0.026851084853 638.205461452880 
      0.107319563624       0.000000000000       0.026851084853 -18305.631918684143 
      0.097888738615       0.000000000000       0.026851084853 -72372.833489181008 
      0.088907000511       0.000000000000       0.026851084853 -139931.423778034077 
      0.295463611921       0.000000000000       0.028533889266 28.833860231323 
      0.290700404439       0.000000000000       0.028533889266 51.058633796440 
      0.285699036582       0.000000000000       0.028533889266 48.111814888534 
      0.280447600333       0.000000000000       0.028533889266 45.199065101617 
      0.274933592271       0.000000000000       0.028533889266 39.049386449188 
      0.269143883806       0.000000000000       0.028533889266 32.967254618872 
      0.263064689917       0.000000000000       0.028533889266 29.555973101082 
      0.256681536335       0.000000000000       0.028533889266 20.955168040885 
      0.249979225073       0.000000000000       0.028533889266 21.564856492884 
      0.242941798248       0.000000000000       0.028533889266 11.914288632962 
      0.235552500082       0.000000000000       0.028533889266 19.324653182614 
      0.227793737007       0.000000000000       0.028533889266 8.871146994333 
      0.219647035779       0.000000000000       0.028533889266 17.991838551381 
      0.211092999489       0.000000000000       0.028533889266 17.861171697283 
      0.202111261385       0.000000000000       0.028533889266 6.175021779039 
      0.192680436376       0.000000000000       0.028533889266 -2.309001045385 
      0.182778070116       0.000000000000       0.028533889266 -6.047126351290 
      0.172380585543       0.000000000000       0.028533889266 2.892807154632 
      0.161463226742       0.000000000000       0.028533889266 -3.679786872826 
      0.150000000000       0.000000000000       0.028533889266 7.253215305897 
      0.138536773258       0.000000000000       0.028533889266 -4.548214885130 
      0.127619414457       0.000000000000       0.028533889266 17.440649131831 
      0.117221929884       0.000000000000       0.028533889266 1.813572776508 
      0.107319563624       0.000000000000       0.028533889266 -27708.705214784364 
      0.097888738615       0.000000000000       0.028533889266 -65289.178499840171 
      0.088907000511       0.000000000000       0.028533889266 -75913.500471774911 
      0.295463611921       0.000000000000       0.030063711462 74.500253472697 
      0.290700404439       0.000000000000       0.030063711462 101.729774055397 
      0.285699036582       0.000000000000       0.030063711462 110.737418404428 
      0.280447600333       0.000000000000       0.030063711462 112.545825163368 
      0.274933592271       0.000000000000       0.030063711462 106.196995205251 
      0.269143883806       0.000000000000       0.030063711462 96.082720878796 
      0.263064689917       0.000000000000       0.030063711462 87.701741266181 
      0.256681536335       0.000000000000       0.030063711462 75.912735582381 
      0.249979225073       0.000000000000       0.030063711462 65.202570996307 
      0.242941798248       0.000000000000       0.030063711462 56.484376000551 
      0.235552500082       0.000000000000       0.030063711462 45.557209299231 
      0.227793737007       0.000000000000       0.030063711462 41.321426466893 
      0.219647035779       0.000000000000       0.030063711462 25.195377294263 
      0.211092999489       0.000000000000       0.030063711462 70.348213183029 
      0.202111261385       0.000000000000       0.030063711462 47.857020098038 
      0.192680436376       0.000000000000       0.030063711462 -0.720499458224 
      0.182778070116       0.000000000000       0.030063711462 -3.898970397250 
      0.172380585543       0.000000000000       0.030063711462 -6.080285773852 
      0.161463226742       0.000000000000       0.030063711462 0.032729082759 
      0.150000000000       0.000000000000       0.030063711462 6.197069928920 
      0.138536773258       0.000000000000       0.030063711462 -5.778250802962 
      0.127619414457       0.000000000000       0.030063711462 19.253743976071 
      0.117221929884       0.000000000000       0.030063711462 -10.597887119302 
      0.107319563624       0.000000000000       0.030063711462 6209.581904822715 
      0.097888738615       0.000000000000       0.030063711462 6062.013241669404 
      0.088907000511       0.000000000000       0.030063711462 139.540066724592 
      0.295463611921       0.000000000000       0.031454458914 84.065552710945 
      0.290700404439       0.000000000000       0.031454458914 139.981910730162 
      0.285699036582       0.000000000000       0.031454458914 172.911549480908 
      0.280447600333       0.000000000000       0.031454458914 189.369746638772 
      0.274933592271       0.000000000000       0.031454458914 205.508314512466 
      0.269143883806       0.000000000000       0.031454458914 207.241735013207 
      0.263064689917       0.000000000000       0.031454458914 200.171361632303 
      0.256681536335       0.000000000000       0.031454458914 190.529471123819 
      0.249979225073       0.000000000000       0.031454458914 174.714614742792 
      0.242941798248       0.000000000000       0.031454458914 159.771333634498 
      0.235552500082       0.000000000000       0.031454458914 142.793770645450 
      0.227793737007       0.000000000000       0.031454458914 114.993998137398 
      0.219647035779       0.000000000000       0.031454458914 91.356217174457 
      0.211092999489       0.000000000000       0.031454458914 81.040417587986 
      0.202111261385       0.000000000000       0.031454458914 190.233835822467 
      0.192680436376       0.000000000000       0.031454458914 141.125231733790 
      0.182778070116       0.000000000000       0.031454458914 18.428084670188 
      0.172380585543       0.000000000000       0.031454458914 72.034855074981 
      0.161463226742       0.000000000000       0.031454458914 40.463139969592 
      0.150000000000       0.000000000000       0.031454458914 14.986964374565 
      0.138536773258       0.000000000000       0.031454458914 14.033427316011 
      0.127619414457       0.000000000000       0.031454458914 -2.249424722917 
      0.117221929884       0.000000000000       0.031454458914 -1.485957080977 
      0.107319563624       0.000000000000       0.031454458914 10446.754362691820 
      0.097888738615       0.000000000000       0.031454458914 15622.437463930342 
      0.088907000511       0.000000000000       0.031454458914 11025.999349093479 
      0.295463611921       0.000000000000       0.032718774781 89.111174873936 
      0.290700404439       0.000000000000       0.032718774781 155.230899618066 
      0.285699036582       0.000000000000       0.032718774781 234.597073354905 
      0.280447600333       0.000000000000       0.032718774781 298.834148475624 
      0.274933592271       0.000000000000       0.032718774781 330.209407539986 
      0.269143883806       0.000000000000       0.032718774781 372.027570847231 
      0.263064689917       0.000000000000       0.032718774781 392.015605932158 
      0.256681536335       0.000000000000       0.032718774781 408.467015165589 
      0.249979225073       0.000000000000       0.032718774781 396.658408704529 
      0.242941798248       0.000000000000       0.032718774781 394.634860383142 
      0.235552500082       0.000000000000       0.032718774781 369.408969569679 
      0.227793737007       0.000000000000       0.032718774781 347.260330258357 
      0.219647035779       0.000000000000       0.032718774781 295.044206558149 
      0.211092999489       0.000000000000       0.032718774781 235.686346314512 
      0.202111261385       0.000000000000       0.032718774781 201.303071369315 
      0.192680436376       0.000000000000       0.032718774781 473.031320788723 
      0.182778070116       0.000000000000       0.032718774781 -216.382318605376 
      0.172380585543       0.000000000000       0.032718774781 -973.722232564073 
      0.161463226742       0.000000000000       0.032718774781 -638.360904659353 
      0.150000000000       0.000000000000       0.032718774781 -257.366479506887 
      0.138536773258       0.000000000000       0.032718774781 -124.837593889682 
      0.127619414457       0.000000000000       0.032718774781 24.621445655785 
      0.117221929884       0.000000000000       0.032718774781 -193.117435999385 
      0.107319563624       0.000000000000       0.032718774781 7896.282198171781 
      0.097888738615       0.000000000000       0.032718774781 9808.701097759902 
      0.088907000511       0.000000000000       0.032718774781 3698.510193181589 
      0.295463611921       0.000000000000       0.033868152842 76.618124360920 
      0.290700404439       0.000000000000       0.033868152842 163.670471879925 
      0.285699036582       0.000000000000       0.033868152842 241.094784090556 
      0.280447600333       0.000000000000       0.033868152842 342.623817631178 
      0.274933592271       0.000000000000       0.033868152842 472.387365171491 
      0.269143883806       0.000000000000       0.033868152842 534.531625898440 
      0.263064689917       0.000000000000       0.033868152842 615.981602965316 
      0.256681536335       0.000000000000       0.033868152842 596.112912118708 
      0.249979225073       0.000000000000       0.033868152842 770.315669945176 
      0.242941798248       0.000000000000       0.033868152842 525.404228759916 
      0.235552500082       0.000000000000       0.033868152842 911.229256016101 
      0.227793737007       0.000000000000       0.033868152842 422.513985599079 
      0.219647035779       0.000000000000       0.033868152842 905.206924159993 
      0.211092999489       0.000000000000       0.033868152842 385.178378994678 
      0.202111261385       0.000000000000       0.033868152842 504.074665592380 
      0.192680436376       0.000000000000       0.033868152842 748.765992182992 
      0.182778070116       0.000000000000       0.033868152842 -291.429721347910 
      0.172380585543       0.000000000000       0.033868152842 -1376.549303803901 
      0.161463226742       0.000000000000       0.033868152842 -942.395354465055 
      0.150000000000       0.000000000000       0.033868152842 -996.045762128589 
      0.138536773258       0.000000000000       0.033868152842 1483.003949276422 
      0.127619414457       0.000000000000       0.033868152842 -5236.806148331319 
      0.117221929884       0.000000000000       0.033868152842 14351.398467515333 
      0.107319563624       0.000000000000       0.033868152842 1968.123413062148 
      0.097888738615       0.000000000000       0.033868152842 5957.148465281543 
      0.088907000511       0.000000000000       0.033868152842 48841.941935424380 
      0.295463611921       0.000000000000       0.034913041991 61.643954829346 
      0.290700404439       0.000000000000       0.034913041991 140.267915452281 
      0.285699036582       0.000000000000       0.034913041991 316.577749955317 
      0.280447600333       0.000000000000       0.034913041991 388.136962647173 
      0.274933592271       0.000000000000       0.034913041991 430.800051425982 
      0.269143883806       0.000000000000       0.034913041991 655.447307134163 
      0.263064689917       0.000000000000       0.034913041991 844.432370687841 
      0.256681536335       0.000000000000       0.034913041991 1012.548150085075 
      0.249979225073       0.000000000000       0.034913041991 1204.542546903309 
      0.242941798248       0.000000000000       0.034913041991 1173.646097868244 
      0.235552500082       0.000000000000       0.034913041991 1470.385184691695 
      0.227793737007       0.000000000000       0.034913041991 1253.777190559217 
      0.219647035779       0.000000000000       0.034913041991 1472.546473665828 
      0.211092999489       0.000000000000       0.034913041991 1070.746932637457 
      0.202111261385       0.000000000000       0.034913041991 1135.367539552213 
      0.192680436376       0.000000000000       0.034913041991 2092.664794181008 
      0.182778070116       0.000000000000       0.034913041991 1292.195793283494 
      0.172380585543       0.000000000000       0.034913041991 2042.460146581535 
      0.161463226742       0.000000000000       0.034913041991 3117.920935091089 
      0.150000000000       0.000000000000       0.034913041991 472.084141358261 
      0.138536773258       0.000000000000       0.034913041991 3576.475933505592 
      0.127619414457       0.000000000000       0.034913041991 -2675.689842019862 
      0.117221929884       0.000000000000       0.034913041991 21659.615924138801 
      0.107319563624       0.000000000000       0.034913041991 14471.623616377456 
      0.097888738615       0.000000000000       0.034913041991 -21113.364611697110 
      0.088907000511       0.000000000000       0.034913041991 -17419.524144375180 
      0.295463611921       0.000000000000       0.035862941217 58.458523627878 
      0.290700404439       0.000000000000       0.035862941217 107.406756296018 
      0.285699036582       0.000000000000       0.035862941217 270.814399519031 
      0.280447600333       0.000000000000       0.035862941217 714.413841780054 
      0.274933592271       0.000000000000       0.035862941217 1133.281135686440 
      0.269143883806       0.000000000000       0.035862941217 1138.197395508079 
      0.263064689917       0.000000000000       0.035862941217 1126.271747610124 
      0.256681536335       0.000000000000       0.035862941217 1317.591099739647 
      0.249979225073       0.000000000000       0.035862941217 1545.751409596809 
      0.242941798248       0.000000000000       0.035862941217 1553.519046432039 
      0.235552500082       0.000000000000       0.035862941217 1566.090560522428 
      0.227793737007       0.000000000000       0.035862941217 1926.008690433884 
      0.219647035779       0.000000000000       0.035862941217 2182.228257671335 
      0.211092999489       0.000000000000       0.035862941217 1799.700924921337 
      0.202111261385       0.000000000000       0.035862941217 89.465907200197 
      0.192680436376       0.000000000000       0.035862941217 744.437999388680 
      0.182778070116       0.000000000000       0.035862941217 1570.404715654483 
      0.172380585543       0.000000000000       0.035862941217 -492.957879239962 
      0.161463226742       0.000000000000       0.035862941217 389.282794497290 
      0.150000000000       0.000000000000       0.035862941217 -216.656421118027 
      0.138536773258       0.000000000000       0.035862941217 -3580.453059184757 
      0.127619414457       0.000000000000       0.035862941217 3922.044341499529 
      0.117221929884       0.000000000000       0.035862941217 -446.194494456623 
      0.107319563624       0.000000000000       0.035862941217 -14735.896537328588 
      0.097888738615       0.000000000000       0.035862941217 -57400.740264554835 
      0.088907000511       0.000000000000       0.035862941217 -134656.136800602602 
      0.295463611921       0.000000000000       0.036726485969 43.979083607636 
      0.290700404439       0.000000000000       0.036726485969 125.117324159031 
      0.285699036582       0.000000000000       0.036726485969 165.157952661717 
      0.280447600333       0.000000000000       0.036726485969 127.423255746849 
      0.274933592271       0.000000000000       0.036726485969 622.802610440360 
      0.269143883806       0.000000000000       0.036726485969 1491.898027126564 
      0.263064689917       0.000000000000       0.036726485969 2140.191417575058 
      0.256681536335       0.000000000000       0.036726485969 3779.065133649806 
      0.249979225073       0.000000000000       0.036726485969 4446.550603980752 
      0.242941798248       0.000000000000       0.036726485969 10503.266632876503 
      0.235552500082       0.000000000000       0.036726485969 11126.468473041437 
      0.227793737007       0.000000000000       0.036726485969 11203.372247621199 
      0.219647035779       0.000000000000       0.036726485969 9956.131696847231 
      0.211092999489       0.000000000000       0.036726485969 9003.984480747302 
      0.202111261385       0.000000000000       0.036726485969 7419.385918707732 
      0.192680436376       0.000000000000       0.036726485969 8203.059758713232 
      0.182778070116       0.000000000000       0.036726485969 24761.854393606169 
      0.172380585543       0.000000000000       0.036726485969 24487.343515999710 
      0.161463226742       0.000000000000       0.036726485969 16150.511767428841 
      0.150000000000       0.000000000000       0.036726485969 6184.229983999109 
      0.138536773258       0.000000000000       0.036726485969 5514.976986110799 
      0.127619414457       0.000000000000       0.036726485969 16520.640110677963 
      0.117221929884       0.000000000000       0.036726485969 -2456.003170852385 
      0.107319563624       0.000000000000       0.036726485969 -42910.322143339901 
      0.097888738615       0.000000000000       0.036726485969 -60261.796379136926 
      0.295463611921       0.000000000000       0.037511526654 32.611316289587 
      0.290700404439       0.000000000000       0.037511526654 101.095770778916 
      0.285699036582       0.000000000000       0.037511526654 304.365702204880 
      0.280447600333       0.000000000000       0.037511526654 269.710306353398 
      0.274933592271       0.000000000000       0.037511526654 -31.004334280122 
      0.269143883806       0.000000000000       0.037511526654 323.022188329680 
      0.263064689917       0.000000000000       0.037511526654 682.119934638370 
      0.256681536335       0.000000000000       0.037511526654 2308.459579821243 
      0.249979225073       0.000000000000       0.037511526654 -434.799729634239 
      0.242941798248       0.000000000000       0.037511526654 4720.395128120954 
      0.235552500082       0.000000000000       0.037511526654 8788.288284373200 
      0.227793737007       0.000000000000       0.037511526654 8911.678590129100 
      0.219647035779       0.000000000000       0.037511526654 18448.871528407089 
      0.211092999489       0.000000000000       0.037511526654 8217.986433169630 
      0.202111261385       0.000000000000       0.037511526654 2166.484062719624 
      0.192680436376       0.000000000000       0.037511526654 -17468.322492809471 
      0.182778070116       0.000000000000       0.037511526654 -15930.517018708697 
      0.172380585543       0.000000000000       0.037511526654 18993.433675181914 
      0.161463226742       0.000000000000       0.037511526654 20214.272289341556 
      0.150000000000       0.000000000000       0.037511526654 15241.269065493996 
      0.138536773258       0.000000000000       0.037511526654 19489.784934304029 
      0.127619414457       0.000000000000       0.037511526654 3943.796344626025 
      0.117221929884       0.000000000000       0.037511526654 7994.732126752546 
      0.107319563624       0.000000000000       0.037511526654 18169.467977956552 