TITLE      =  Unstructured grid data
VARIABLES  =  "x0" "x1" "x2" "Phi"
ZONE   T="P6 ZONE0 Hexa", N=14896, E=13076, F=FEPOINT, ET=BRICK, SOLUTIONTIME=0
      0.000000000000       0.000000000000       0.040000000000 0.999999999674 
      0.004536388079       0.000000000000       0.040000000000 -0.000000022016 
      0.009299595561       0.000000000000       0.040000000000 0.000000009775 
      0.014300963418       0.000000000000       0.040000000000 -0.000000004893 
      0.019552399667       0.000000000000       0.040000000000 0.000000001190 
      0.025066407729       0.000000000000       0.040000000000 0.000000051692 
      0.030856116194       0.000000000000       0.040000000000 0.000000032516 
      0.036935310083       0.000000000000       0.040000000000 0.000000019022 
      0.043318463665       0.000000000000       0.040000000000 0.000000008435 
      0.050020774927       0.000000000000       0.040000000000 0.000000003785 
      0.057058201752       0.000000000000       0.040000000000 0.000000001212 
      0.064447499918       0.000000000000       0.040000000000 0.000000000403 
      0.072206262993       0.000000000000       0.040000000000 0.000000000086 
      0.080352964221       0.000000000000       0.040000000000 0.000000000018 
      0.088907000511       0.000000000000       0.040000000000 0.000000000002 
      0.097888738615       0.000000000000       0.040000000000 -0.000000004004 
      0.107319563624       0.000000000000       0.040000000000 -0.000000004140 
      0.117221929884       0.000000000000       0.040000000000 -0.000000010202 
      0.127619414457       0.000000000000       0.040000000000 -0.000000010797 
      0.138536773258       0.000000000000       0.040000000000 -0.000000007950 
      0.150000000000       0.000000000000       0.040000000000 -0.000000008050 
      0.161463226742       0.000000000000       0.040000000000 -0.000000000007 
      0.000000000000       0.000000000000       0.025000000000 1.000000000000 
      0.150000000000       0.000000000000       0.025000000000 0.000000000000 
      0.138536773258       0.000000000000       0.025000000000 0.000000000000 
      0.127619414457       0.000000000000       0.025000000000 0.000000000000 
      0.117221929884       0.000000000000       0.025000000000 -0.000000000002 
      0.107319563624       0.000000000000       0.025000000000 -0.000000000009 
      0.097888738615       0.000000000000       0.025000000000 -0.000000000011 
      0.088907000511       0.000000000000       0.025000000000 -0.000000000006 
      0.080352964221       0.000000000000       0.025000000000 -0.000000000002 
      0.072206262993       0.000000000000       0.025000000000 -0.000000000001 
      0.064447499918       0.000000000000       0.025000000000 0.000000000001 
      0.057058201752       0.000000000000       0.025000000000 -0.000000000003 
      0.050020774927       0.000000000000       0.025000000000 0.000000000006 
      0.043318463665       0.000000000000       0.025000000000 -0.000000000012 
      0.036935310083       0.000000000000       0.025000000000 0.000000000012 
      0.030856116194       0.000000000000       0.025000000000 -0.000000000001 
      0.025066407729       0.000000000000       0.025000000000 -0.000000000062 
      0.019552399667       0.000000000000       0.025000000000 0.000000000114 
      0.014300963418       0.000000000000       0.025000000000 -0.000000000265 
      0.009299595561       0.000000000000       0.025000000000 0.000000000409 
      0.004536388079       0.000000000000       0.025000000000 -0.000000000133 
      0.000000000000      -0.003138363829       0.039876693349 1.000000000000 
      0.000000000000      -0.006257378602       0.039507533624 1.000000000000 
      0.000000000000      -0.009337814554       0.038894796816 1.000000000000 
      0.000000000000      -0.012360679775       0.038042260652 1.000000000000 
      0.000000000000      -0.015307337295       0.036955181300 1.000000000000 
      0.000000000000      -0.018159619990       0.035640260967 1.000000000000 
      0.000000000000      -0.020899942589       0.034105606574 1.000000000000 
      0.000000000000      -0.023511410092       0.032360679775 1.000000000001 
      0.000000000000      -0.025977921933       0.030416238624 1.000000000002 
      0.000000000000      -0.028284271247       0.028284271247 1.000000000004 
      0.000000000000      -0.030416238624       0.025977921933 1.000000000009 
      0.000000000000      -0.032360679775       0.023511410092 1.000000000018 
      0.000000000000      -0.034105606574       0.020899942589 1.000000000032 
      0.000000000000      -0.035640260967       0.018159619990 1.000000000053 
      0.000000000000      -0.036955181300       0.015307337295 1.000000000084 
      0.000000000000      -0.038042260652       0.012360679775 1.000000000127 
      0.000000000000      -0.038894796816       0.009337814554 1.000000000182 
      0.000000000000      -0.039507533624       0.006257378602 1.000000000247 
      0.000000000000      -0.039876693349       0.003138363829 1.000000000319 
      0.000000000000      -0.040000000000       0.000000000000 1.000000000391 
      0.000000000000      -0.039876693349      -0.003138363829 1.000000000455 
      0.000000000000      -0.039507533624      -0.006257378602 1.000000000498 
      0.000000000000      -0.038894796816      -0.009337814554 1.000000000508 
      0.000000000000      -0.038042260652      -0.012360679775 1.000000000478 
      0.000000000000      -0.036955181300      -0.015307337295 1.000000000399 
      0.000000000000      -0.035640260967      -0.018159619990 1.000000000066 
      0.000000000000      -0.034105606574      -0.020899942589 0.999999999860 
      0.000000000000      -0.032360679775      -0.023511410092 0.999999999968 
      0.000000000000      -0.030416238624      -0.025977921933 1.000000000004 
      0.000000000000      -0.028284271247      -0.028284271247 1.000000000016 
      0.000000000000      -0.025977921933      -0.030416238624 1.000000000025 
      0.000000000000      -0.001961477393       0.024922933343 1.000000000000 
      0.000000000000      -0.003910861626       0.024692208515 1.000000000000 
      0.000000000000      -0.005836134096       0.024309248010 1.000000000000 
      0.000000000000      -0.007725424859       0.023776412907 1.000000000000 
      0.000000000000      -0.009567085809       0.023096988313 1.000000000000 
      0.000000000000      -0.011349762494       0.022275163105 1.000000000000 
      0.000000000000      -0.013062464118       0.021316004109 1.000000000000 
      0.000000000000      -0.014694631307       0.020225424859 1.000000000000 
      0.000000000000      -0.016236201208       0.019010149140 1.000000000000 
      0.000000000000      -0.017677669530       0.017677669530 1.000000000000 
      0.000000000000      -0.019010149140       0.016236201208 1.000000000000 
      0.000000000000      -0.020225424859       0.014694631307 1.000000000000 
      0.000000000000      -0.021316004109       0.013062464118 1.000000000000 
      0.000000000000      -0.022275163105       0.011349762494 1.000000000000 
      0.000000000000      -0.023096988313       0.009567085809 1.000000000000 
      0.000000000000      -0.023776412907       0.007725424859 1.000000000000 
      0.000000000000      -0.024309248010       0.005836134096 1.000000000000 
      0.000000000000      -0.024692208515       0.003910861626 1.000000000000 
      0.000000000000      -0.024922933343       0.001961477393 1.000000000000 
      0.000000000000      -0.025000000000       0.000000000000 1.000000000000 
      0.000000000000      -0.024922933343      -0.001961477393 1.000000000000 
      0.000000000000      -0.024692208515      -0.003910861626 1.000000000000 
      0.000000000000      -0.024309248010      -0.005836134096 1.000000000000 
      0.000000000000      -0.023776412907      -0.007725424859 1.000000000000 
      0.000000000000      -0.023096988313      -0.009567085809 1.000000000000 
      0.000000000000      -0.022275163105      -0.011349762494 1.000000000000 
      0.000000000000      -0.021316004109      -0.013062464118 1.000000000000 
      0.000000000000      -0.020225424859      -0.014694631307 1.000000000000 
      0.000000000000      -0.019010149140      -0.016236201208 1.000000000000 
      0.000000000000      -0.017677669530      -0.017677669530 1.000000000000 
      0.000000000000      -0.016236201208      -0.019010149140 1.000000000000 
      0.000000000000      -0.014694631307      -0.020225424859 1.000000000000 
      0.000000000000      -0.013062464118      -0.021316004109 1.000000000000 
      0.000000000000      -0.011349762494      -0.022275163105 1.000000000000 
      0.000000000000       0.003910861626       0.024692208515 1.000000000000 
      0.000000000000       0.001961477393       0.024922933343 1.000000000000 
      0.000000000000       0.006257378602       0.039507533624 1.000000001069 
      0.000000000000       0.003138363829       0.039876693349 1.000000000209 
      0.000000000000       0.000000000000       0.026851084853 1.000000000000 
      0.000000000000       0.000000000000       0.028533889266 1.000000000000 
      0.000000000000       0.000000000000       0.030063711462 1.000000000000 
      0.000000000000       0.000000000000       0.031454458914 1.000000000000 
      0.000000000000       0.000000000000       0.032718774781 1.000000000000 
      0.000000000000       0.000000000000       0.033868152842 0.999999999999 
      0.000000000000       0.000000000000       0.034913041991 0.999999999998 
      0.000000000000       0.000000000000       0.035862941217 0.999999999997 
      0.000000000000       0.000000000000       0.036726485969 1.000000000003 
      0.000000000000       0.000000000000       0.037511526654 1.000000000044 
      0.000000000000       0.000000000000       0.038225200004 1.000000000154 
      0.000000000000       0.000000000000       0.038873993960 0.999999999777 
      0.000000000000       0.000000000000       0.039463806647 0.999999999499 
      0.150000000000       0.000000000000       0.026851084853 0.000000000000 
      0.138536773258       0.000000000000       0.026851084853 0.000000000000 
      0.127619414457       0.000000000000       0.026851084853 0.000000000000 
      0.117221929884       0.000000000000       0.026851084853 -0.000000000000 
      0.107319563624       0.000000000000       0.026851084853 0.000000000000 
      0.097888738615       0.000000000000       0.026851084853 -0.000000000000 
      0.088907000511       0.000000000000       0.026851084853 -0.000000000000 
      0.080352964221       0.000000000000       0.026851084853 -0.000000000000 
      0.072206262993       0.000000000000       0.026851084853 0.000000000000 
      0.064447499918       0.000000000000       0.026851084853 -0.000000000000 
      0.057058201752       0.000000000000       0.026851084853 0.000000000000 
      0.050020774927       0.000000000000       0.026851084853 0.000000000001 
      0.043318463665       0.000000000000       0.026851084853 -0.000000000003 
      0.036935310083       0.000000000000       0.026851084853 0.000000000011 
      0.030856116194       0.000000000000       0.026851084853 -0.000000000036 
      0.025066407729       0.000000000000       0.026851084853 0.000000000067 
      0.019552399667       0.000000000000       0.026851084853 -0.000000000134 
      0.014300963418       0.000000000000       0.026851084853 0.000000000141 
      0.009299595561       0.000000000000       0.026851084853 -0.000000000228 
      0.004536388079       0.000000000000       0.026851084853 -0.000000000239 
      0.150000000000       0.000000000000       0.028533889266 0.000000000000 
      0.138536773258       0.000000000000       0.028533889266 0.000000000000 
      0.127619414457       0.000000000000       0.028533889266 -0.000000000000 
      0.117221929884       0.000000000000       0.028533889266 -0.000000000000 
      0.107319563624       0.000000000000       0.028533889266 -0.000000000001 
      0.097888738615       0.000000000000       0.028533889266 -0.000000000000 
      0.088907000511       0.000000000000       0.028533889266 -0.000000000000 
      0.080352964221       0.000000000000       0.028533889266 -0.000000000001 
      0.072206262993       0.000000000000       0.028533889266 -0.000000000000 
      0.064447499918       0.000000000000       0.028533889266 0.000000000000 
      0.057058201752       0.000000000000       0.028533889266 -0.000000000000 
      0.050020774927       0.000000000000       0.028533889266 -0.000000000001 
      0.043318463665       0.000000000000       0.028533889266 0.000000000005 
      0.036935310083       0.000000000000       0.028533889266 -0.000000000020 
      0.030856116194       0.000000000000       0.028533889266 0.000000000065 
      0.025066407729       0.000000000000       0.028533889266 -0.000000000139 
      0.019552399667       0.000000000000       0.028533889266 0.000000000257 
      0.014300963418       0.000000000000       0.028533889266 -0.000000000316 
      0.009299595561       0.000000000000       0.028533889266 0.000000000491 
      0.004536388079       0.000000000000       0.028533889266 0.000000000229 
      0.150000000000       0.000000000000       0.030063711462 -0.000000000000 
      0.138536773258       0.000000000000       0.030063711462 0.000000000000 
      0.127619414457       0.000000000000       0.030063711462 0.000000000000 
      0.117221929884       0.000000000000       0.030063711462 -0.000000000001 
      0.107319563624       0.000000000000       0.030063711462 -0.000000000001 
      0.097888738615       0.000000000000       0.030063711462 -0.000000000002 
      0.088907000511       0.000000000000       0.030063711462 0.000000000001 
      0.080352964221       0.000000000000       0.030063711462 0.000000000003 
      0.072206262993       0.000000000000       0.030063711462 0.000000000000 
      0.064447499918       0.000000000000       0.030063711462 -0.000000000000 
      0.057058201752       0.000000000000       0.030063711462 0.000000000001 
      0.050020774927       0.000000000000       0.030063711462 -0.000000000000 
      0.043318463665       0.000000000000       0.030063711462 -0.000000000004 
      0.036935310083       0.000000000000       0.030063711462 0.000000000025 
      0.030856116194       0.000000000000       0.030063711462 -0.000000000086 
      0.025066407729       0.000000000000       0.030063711462 0.000000000205 
      0.019552399667       0.000000000000       0.030063711462 -0.000000000388 
      0.014300963418       0.000000000000       0.030063711462 0.000000000532 
      0.009299595561       0.000000000000       0.030063711462 -0.000000000820 
      0.004536388079       0.000000000000       0.030063711462 -0.000000000232 
      0.138536773258       0.000000000000       0.031454458914 0.000000000000 
      0.127619414457       0.000000000000       0.031454458914 -0.000000000004 
      0.117221929884       0.000000000000       0.031454458914 -0.000000000004 
      0.107319563624       0.000000000000       0.031454458914 -0.000000000009 
      0.097888738615       0.000000000000       0.031454458914 -0.000000000005 
      0.088907000511       0.000000000000       0.031454458914 -0.000000000008 
      0.080352964221       0.000000000000       0.031454458914 -0.000000000011 
      0.072206262993       0.000000000000       0.031454458914 -0.000000000000 
      0.064447499918       0.000000000000       0.031454458914 0.000000000001 
      0.057058201752       0.000000000000       0.031454458914 -0.000000000002 
      0.050020774927       0.000000000000       0.031454458914 0.000000000004 
      0.043318463665       0.000000000000       0.031454458914 -0.000000000002 
      0.036935310083       0.000000000000       0.031454458914 -0.000000000016 
      0.030856116194       0.000000000000       0.031454458914 0.000000000086 
      0.025066407729       0.000000000000       0.031454458914 -0.000000000240 
      0.019552399667       0.000000000000       0.031454458914 0.000000000499 
      0.014300963418       0.000000000000       0.031454458914 -0.000000000762 
      0.009299595561       0.000000000000       0.031454458914 0.000000001228 
      0.004536388079       0.000000000000       0.031454458914 0.000000000171 
      0.138536773258       0.000000000000       0.032718774781 -0.000000000007 
      0.127619414457       0.000000000000       0.032718774781 -0.000000000006 
      0.117221929884       0.000000000000       0.032718774781 -0.000000000022 
      0.107319563624       0.000000000000       0.032718774781 -0.000000000026 
      0.097888738615       0.000000000000       0.032718774781 -0.000000000051 
      0.088907000511       0.000000000000       0.032718774781 -0.000000000029 
      0.080352964221       0.000000000000       0.032718774781 0.000000000013 
      0.072206262993       0.000000000000       0.032718774781 0.000000000000 
      0.064447499918       0.000000000000       0.032718774781 -0.000000000002 
      0.057058201752       0.000000000000       0.032718774781 0.000000000005 
      0.050020774927       0.000000000000       0.032718774781 -0.000000000012 
      0.043318463665       0.000000000000       0.032718774781 0.000000000020 
      0.036935310083       0.000000000000       0.032718774781 -0.000000000016 
      0.030856116194       0.000000000000       0.032718774781 -0.000000000038 
      0.025066407729       0.000000000000       0.032718774781 0.000000000200 
      0.019552399667       0.000000000000       0.032718774781 -0.000000000526 
      0.014300963418       0.000000000000       0.032718774781 0.000000000915 
      0.009299595561       0.000000000000       0.032718774781 -0.000000001699 
      0.004536388079       0.000000000000       0.032718774781 -0.000000000005 
      0.138536773258       0.000000000000       0.033868152842 -0.000000000008 
      0.127619414457       0.000000000000       0.033868152842 -0.000000000027 
      0.117221929884       0.000000000000       0.033868152842 -0.000000000039 
      0.107319563624       0.000000000000       0.033868152842 -0.000000000120 
      0.097888738615       0.000000000000       0.033868152842 -0.000000000136 
      0.088907000511       0.000000000000       0.033868152842 -0.000000000164 
      0.080352964221       0.000000000000       0.033868152842 -0.000000000123 
      0.072206262993       0.000000000000       0.033868152842 -0.000000000000 
      0.064447499918       0.000000000000       0.033868152842 0.000000000003 
      0.057058201752       0.000000000000       0.033868152842 -0.000000000010 
      0.050020774927       0.000000000000       0.033868152842 0.000000000026 
      0.043318463665       0.000000000000       0.033868152842 -0.000000000055 
      0.036935310083       0.000000000000       0.033868152842 0.000000000089 
      0.030856116194       0.000000000000       0.033868152842 -0.000000000091 
      0.025066407729       0.000000000000       0.033868152842 -0.000000000039 
      0.019552399667       0.000000000000       0.033868152842 0.000000000309 
      0.014300963418       0.000000000000       0.033868152842 -0.000000000955 
      0.009299595561       0.000000000000       0.033868152842 0.000000001864 
      0.004536388079       0.000000000000       0.033868152842 -0.000000000550 
      0.150000000000       0.000000000000       0.034913041991 -0.000000000137 
      0.138536773258       0.000000000000       0.034913041991 -0.000000000039 
      0.127619414457       0.000000000000       0.034913041991 -0.000000000017 
      0.117221929884       0.000000000000       0.034913041991 -0.000000000150 
      0.107319563624       0.000000000000       0.034913041991 -0.000000000240 
      0.097888738615       0.000000000000       0.034913041991 -0.000000000639 
      0.088907000511       0.000000000000       0.034913041991 -0.000000000662 
      0.080352964221       0.000000000000       0.034913041991 -0.000000000150 
      0.072206262993       0.000000000000       0.034913041991 0.000000000001 
      0.064447499918       0.000000000000       0.034913041991 -0.000000000004 
      0.057058201752       0.000000000000       0.034913041991 0.000000000016 
      0.050020774927       0.000000000000       0.034913041991 -0.000000000048 
      0.043318463665       0.000000000000       0.034913041991 0.000000000110 
      0.036935310083       0.000000000000       0.034913041991 -0.000000000203 
      0.030856116194       0.000000000000       0.034913041991 0.000000000336 
      0.025066407729       0.000000000000       0.034913041991 -0.000000000388 
      0.019552399667       0.000000000000       0.034913041991 -0.000000000021 
      0.014300963418       0.000000000000       0.034913041991 0.000000000186 
      0.009299595561       0.000000000000       0.034913041991 -0.000000002242 
      0.004536388079       0.000000000000       0.034913041991 0.000000000785 
      0.150000000000       0.000000000000       0.035862941217 -0.000000000083 
      0.138536773258       0.000000000000       0.035862941217 -0.000000000131 
      0.127619414457       0.000000000000       0.035862941217 -0.000000000056 
      0.117221929884       0.000000000000       0.035862941217 -0.000000000117 
      0.107319563624       0.000000000000       0.035862941217 -0.000000000817 
      0.097888738615       0.000000000000       0.035862941217 -0.000000001152 
      0.088907000511       0.000000000000       0.035862941217 -0.000000000483 
      0.080352964221       0.000000000000       0.035862941217 0.000000000000 
      0.072206262993       0.000000000000       0.035862941217 -0.000000000001 
      0.064447499918       0.000000000000       0.035862941217 0.000000000005 
      0.057058201752       0.000000000000       0.035862941217 -0.000000000025 
      0.050020774927       0.000000000000       0.035862941217 0.000000000065 
      0.043318463665       0.000000000000       0.035862941217 -0.000000000177 
      0.036935310083       0.000000000000       0.035862941217 0.000000000370 
      0.030856116194       0.000000000000       0.035862941217 -0.000000000560 
      0.025066407729       0.000000000000       0.035862941217 0.000000001030 
      0.019552399667       0.000000000000       0.035862941217 -0.000000000676 
      0.014300963418       0.000000000000       0.035862941217 -0.000000000004 
      0.009299595561       0.000000000000       0.035862941217 -0.000000000486 
      0.004536388079       0.000000000000       0.035862941217 -0.000000002777 
      0.150000000000       0.000000000000       0.036726485969 -0.000000000868 
      0.138536773258       0.000000000000       0.036726485969 -0.000000000502 
      0.127619414457       0.000000000000       0.036726485969 -0.000000000218 
      0.117221929884       0.000000000000       0.036726485969 -0.000000000448 
      0.107319563624       0.000000000000       0.036726485969 -0.000000000986 
      0.097888738615       0.000000000000       0.036726485969 -0.000000000624 
      0.088907000511       0.000000000000       0.036726485969 0.000000000034 
      0.080352964221       0.000000000000       0.036726485969 -0.000000000000 
      0.072206262993       0.000000000000       0.036726485969 -0.000000000000 
      0.064447499918       0.000000000000       0.036726485969 -0.000000000008 
      0.057058201752       0.000000000000       0.036726485969 0.000000000010 
      0.050020774927       0.000000000000       0.036726485969 -0.000000000105 
      0.043318463665       0.000000000000       0.036726485969 0.000000000148 
      0.036935310083       0.000000000000       0.036726485969 -0.000000000507 
      0.030856116194       0.000000000000       0.036726485969 0.000000000906 
      0.025066407729       0.000000000000       0.036726485969 -0.000000000934 
      0.019552399667       0.000000000000       0.036726485969 0.000000003017 
      0.014300963418       0.000000000000       0.036726485969 0.000000000120 
      0.009299595561       0.000000000000       0.036726485969 0.000000000302 
      0.004536388079       0.000000000000       0.036726485969 -0.000000000191 
      0.161463226742       0.000000000000       0.037511526654 -0.000000004148 
      0.150000000000       0.000000000000       0.037511526654 -0.000000001950 
      0.138536773258       0.000000000000       0.037511526654 -0.000000001657 
      0.127619414457       0.000000000000       0.037511526654 -0.000000001350 
      0.117221929884       0.000000000000       0.037511526654 -0.000000000346 
      0.107319563624       0.000000000000       0.037511526654 -0.000000001829 
      0.097888738615       0.000000000000       0.037511526654 -0.000000001576 
      0.088907000511       0.000000000000       0.037511526654 0.000000000000 
      0.080352964221       0.000000000000       0.037511526654 -0.000000000001 
      0.072206262993       0.000000000000       0.037511526654 -0.000000000003 
      0.064447499918       0.000000000000       0.037511526654 -0.000000000020 
      0.057058201752       0.000000000000       0.037511526654 -0.000000000068 
      0.050020774927       0.000000000000       0.037511526654 -0.000000000133 
      0.043318463665       0.000000000000       0.037511526654 -0.000000000475 
      0.036935310083       0.000000000000       0.037511526654 -0.000000000286 
      0.030856116194       0.000000000000       0.037511526654 -0.000000001335 
      0.025066407729       0.000000000000       0.037511526654 0.000000000929 
      0.019552399667       0.000000000000       0.037511526654 0.000000000208 
      0.014300963418       0.000000000000       0.037511526654 0.000000006436 
      0.009299595561       0.000000000000       0.037511526654 0.000000000631 
      0.004536388079       0.000000000000       0.037511526654 0.000000000680 
      0.161463226742       0.000000000000       0.038225200004 -0.000000002067 
      0.150000000000       0.000000000000       0.038225200004 -0.000000003791 
      0.138536773258       0.000000000000       0.038225200004 -0.000000003978 
      0.127619414457       0.000000000000       0.038225200004 -0.000000004048 
      0.117221929884       0.000000000000       0.038225200004 -0.000000002620 
      0.107319563624       0.000000000000       0.038225200004 -0.000000001517 
      0.097888738615       0.000000000000       0.038225200004 -0.000000001523 
      0.088907000511       0.000000000000       0.038225200004 0.000000000000 
      0.080352964221       0.000000000000       0.038225200004 0.000000000003 
      0.072206262993       0.000000000000       0.038225200004 0.000000000007 
      0.064447499918       0.000000000000       0.038225200004 -0.000000000037 
      0.057058201752       0.000000000000       0.038225200004 -0.000000000291 
      0.050020774927       0.000000000000       0.038225200004 -0.000000000568 
      0.043318463665       0.000000000000       0.038225200004 -0.000000001724 
      0.036935310083       0.000000000000       0.038225200004 -0.000000002474 
      0.030856116194       0.000000000000       0.038225200004 -0.000000005103 
      0.025066407729       0.000000000000       0.038225200004 -0.000000004001 
      0.019552399667       0.000000000000       0.038225200004 -0.000000003746 
      0.014300963418       0.000000000000       0.038225200004 0.000000007266 
      0.009299595561       0.000000000000       0.038225200004 0.000000007958 
      0.004536388079       0.000000000000       0.038225200004 -0.000000000565 
      0.161463226742       0.000000000000       0.038873993960 -0.000000014402 
      0.150000000000       0.000000000000       0.038873993960 -0.000000010025 
      0.138536773258       0.000000000000       0.038873993960 -0.000000014643 
      0.127619414457       0.000000000000       0.038873993960 -0.000000014330 
      0.117221929884       0.000000000000       0.038873993960 -0.000000013953 
      0.107319563624       0.000000000000       0.038873993960 -0.000000010606 
      0.097888738615       0.000000000000       0.038873993960 0.000000000021 
      0.088907000511       0.000000000000       0.038873993960 0.000000000002 
      0.080352964221       0.000000000000       0.038873993960 0.000000000016 
      0.072206262993       0.000000000000       0.038873993960 0.000000000115 
      0.064447499918       0.000000000000       0.038873993960 0.000000000259 
      0.057058201752       0.000000000000       0.038873993960 0.000000001221 
      0.050020774927       0.000000000000       0.038873993960 0.000000002334 
      0.043318463665       0.000000000000       0.038873993960 0.000000008225 
      0.036935310083       0.000000000000       0.038873993960 0.000000012836 
      0.030856116194       0.000000000000       0.038873993960 0.000000030087 
      0.025066407729       0.000000000000       0.038873993960 0.000000039630 
      0.019552399667       0.000000000000       0.038873993960 0.000000053645 
      0.014300963418       0.000000000000       0.038873993960 0.000000023258 
      0.009299595561       0.000000000000       0.038873993960 0.000000002751 
      0.004536388079       0.000000000000       0.038873993960 0.000000026113 
      0.161463226742       0.000000000000       0.039463806647 -0.000000014464 
      0.150000000000       0.000000000000       0.039463806647 -0.000000011358 
      0.138536773258       0.000000000000       0.039463806647 -0.000000015976 
      0.127619414457       0.000000000000       0.039463806647 -0.000000016972 
      0.117221929884       0.000000000000       0.039463806647 -0.000000016429 
      0.107319563624       0.000000000000       0.039463806647 -0.000000012791 
      0.097888738615       0.000000000000       0.039463806647 -0.000000002064 
      0.088907000511       0.000000000000       0.039463806647 0.000000000003 
      0.080352964221       0.000000000000       0.039463806647 0.000000000022 
      0.072206262993       0.000000000000       0.039463806647 0.000000000144 