TITLE      =  Unstructured grid data
VARIABLES  =  "x0" "x1" "x2" "Phi"
ZONE   T="P1 ZONE0 Hexa", N=13748, E=11904, F=FEPOINT, ET=BRICK, SOLUTIONTIME=0
      0.300000000000      -0.000000000000      -0.025000000000 2.000000000000 
      0.161463226742      -0.000000000000      -0.025000000000 -0.000000000000 
      0.172380585543      -0.000000000000      -0.025000000000 -0.000000000000 
      0.182778070116      -0.000000000000      -0.025000000000 -0.000000000000 
      0.192680436376      -0.000000000000      -0.025000000000 0.000000000000 
      0.202111261385      -0.000000000000      -0.025000000000 0.000000000000 
      0.211092999489      -0.000000000000      -0.025000000000 0.000000000000 
      0.219647035779      -0.000000000000      -0.025000000000 -0.000000000000 
      0.227793737007      -0.000000000000      -0.025000000000 -0.000000000000 
      0.235552500082      -0.000000000000      -0.025000000000 -0.000000000000 
      0.242941798248      -0.000000000000      -0.025000000000 -0.000000000000 
      0.249979225073      -0.000000000000      -0.025000000000 -0.000000000000 
      0.256681536335      -0.000000000000      -0.025000000000 -0.000000000000 
      0.263064689917      -0.000000000000      -0.025000000000 -0.000000000000 
      0.269143883806      -0.000000000000      -0.025000000000 0.000000000000 
      0.274933592271      -0.000000000000      -0.025000000000 0.000000000000 
      0.280447600333      -0.000000000000      -0.025000000000 0.000000000000 
      0.285699036582      -0.000000000000      -0.025000000000 0.000000000000 
      0.290700404439      -0.000000000000      -0.025000000000 -0.000000000000 
      0.295463611921      -0.000000000000      -0.025000000000 -0.000000000000 
      0.300000000000      -0.000000000000      -0.040000000000 2.000000000000 
      0.172380585543      -0.000000000000      -0.040000000000 0.000000000002 
      0.182778070116      -0.000000000000      -0.040000000000 0.000000000001 
      0.192680436376      -0.000000000000      -0.040000000000 0.000000005083 
      0.202111261385      -0.000000000000      -0.040000000000 0.000000005696 
      0.211092999489      -0.000000000000      -0.040000000000 0.000000001039 
      0.219647035779      -0.000000000000      -0.040000000000 0.000000000114 
      0.227793737007      -0.000000000000      -0.040000000000 -0.000000000259 
      0.235552500082      -0.000000000000      -0.040000000000 -0.000000000226 
      0.242941798248      -0.000000000000      -0.040000000000 -0.000000000147 
      0.249979225073      -0.000000000000      -0.040000000000 -0.000000000076 
      0.256681536335      -0.000000000000      -0.040000000000 -0.000000000026 
      0.263064689917      -0.000000000000      -0.040000000000 -0.000000000011 
      0.269143883806      -0.000000000000      -0.040000000000 -0.000000000001 
      0.274933592271      -0.000000000000      -0.040000000000 -0.000000000001 
      0.280447600333      -0.000000000000      -0.040000000000 0.000000000000 
      0.285699036582      -0.000000000000      -0.040000000000 -0.000000000000 
      0.290700404439      -0.000000000000      -0.040000000000 -0.000000000000 
      0.295463611921      -0.000000000000      -0.040000000000 -0.000000000000 
      0.300000000000      -0.039876693349       0.003138363829 2.000000000000 
      0.300000000000      -0.040000000000       0.000000000000 2.000000000000 
      0.300000000000      -0.039876693349      -0.003138363829 2.000000000000 
      0.300000000000      -0.039507533624      -0.006257378602 2.000000000000 
      0.300000000000      -0.038894796816      -0.009337814554 2.000000000000 
      0.300000000000      -0.038042260652      -0.012360679775 2.000000000000 
      0.300000000000      -0.036955181300      -0.015307337295 2.000000000000 
      0.300000000000      -0.035640260967      -0.018159619990 2.000000000000 
      0.300000000000      -0.034105606574      -0.020899942589 2.000000000000 
      0.300000000000      -0.032360679775      -0.023511410092 2.000000000000 
      0.300000000000      -0.030416238624      -0.025977921933 2.000000000000 
      0.300000000000      -0.028284271247      -0.028284271247 2.000000000000 
      0.300000000000      -0.025977921933      -0.030416238624 2.000000000000 
      0.300000000000      -0.023511410092      -0.032360679775 2.000000000000 
      0.300000000000      -0.020899942589      -0.034105606574 2.000000000000 
      0.300000000000      -0.018159619990      -0.035640260967 2.000000000000 
      0.300000000000      -0.015307337295      -0.036955181300 2.000000000000 
      0.300000000000      -0.012360679775      -0.038042260652 2.000000000000 
      0.300000000000      -0.009337814554      -0.038894796816 2.000000000000 
      0.300000000000      -0.006257378602      -0.039507533624 2.000000000000 
      0.300000000000      -0.003138363829      -0.039876693349 2.000000000000 
      0.300000000000      -0.017677669530       0.017677669530 2.000000000000 
      0.300000000000      -0.019010149140       0.016236201208 2.000000000000 
      0.300000000000      -0.020225424859       0.014694631307 2.000000000000 
      0.300000000000      -0.021316004109       0.013062464118 2.000000000000 
      0.300000000000      -0.022275163105       0.011349762494 2.000000000000 
      0.300000000000      -0.023096988313       0.009567085809 2.000000000000 
      0.300000000000      -0.023776412907       0.007725424859 2.000000000000 
      0.300000000000      -0.024309248010       0.005836134096 2.000000000000 
      0.300000000000      -0.024692208515       0.003910861626 2.000000000000 
      0.300000000000      -0.024922933343       0.001961477393 2.000000000000 
      0.300000000000      -0.025000000000       0.000000000000 2.000000000000 
      0.300000000000      -0.024922933343      -0.001961477393 2.000000000000 
      0.300000000000      -0.024692208515      -0.003910861626 2.000000000000 
      0.300000000000      -0.024309248010      -0.005836134096 2.000000000000 
      0.300000000000      -0.023776412907      -0.007725424859 2.000000000000 
      0.300000000000      -0.023096988313      -0.009567085809 2.000000000000 
      0.300000000000      -0.022275163105      -0.011349762494 2.000000000000 
      0.300000000000      -0.021316004109      -0.013062464118 2.000000000000 
      0.300000000000      -0.020225424859      -0.014694631307 2.000000000000 
      0.300000000000      -0.019010149140      -0.016236201208 2.000000000000 
      0.300000000000      -0.017677669530      -0.017677669530 2.000000000000 
      0.300000000000      -0.016236201208      -0.019010149140 2.000000000000 
      0.300000000000      -0.014694631307      -0.020225424859 2.000000000000 
      0.300000000000      -0.013062464118      -0.021316004109 2.000000000000 
      0.300000000000      -0.011349762494      -0.022275163105 2.000000000000 
      0.300000000000      -0.009567085809      -0.023096988313 2.000000000000 
      0.300000000000      -0.007725424859      -0.023776412907 2.000000000000 
      0.300000000000      -0.005836134096      -0.024309248010 2.000000000000 
      0.300000000000      -0.003910861626      -0.024692208515 2.000000000000 
      0.300000000000      -0.001961477393      -0.024922933343 2.000000000000 
      0.300000000000       0.001961477393      -0.024922933343 2.000000000000 
      0.300000000000       0.003910861626      -0.024692208515 2.000000000000 
      0.300000000000       0.005836134096      -0.024309248010 2.000000000000 
      0.300000000000       0.007725424859      -0.023776412907 2.000000000007 
      0.300000000000       0.009567085809      -0.023096988313 2.000000000006 
      0.300000000000       0.011349762494      -0.022275163105 1.999999999991 
      0.300000000000       0.013062464118      -0.021316004109 1.999999999989 
      0.300000000000       0.014694631307      -0.020225424859 2.000000000000 
      0.300000000000       0.003138363829      -0.039876693349 2.000000000000 
      0.300000000000       0.006257378602      -0.039507533624 2.000000000000 
      0.300000000000       0.009337814554      -0.038894796816 2.000000000000 
      0.300000000000       0.012360679775      -0.038042260652 2.000000000000 
      0.300000000000       0.015307337295      -0.036955181300 2.000000000000 
      0.300000000000       0.018159619990      -0.035640260967 2.000000000000 
      0.300000000000       0.020899942589      -0.034105606574 2.000000000000 
      0.300000000000       0.023511410092      -0.032360679775 2.000000000000 
      0.300000000000      -0.000000000000      -0.026851084862 2.000000000000 
      0.300000000000      -0.000000000000      -0.028533889282 2.000000000000 
      0.300000000000      -0.000000000000      -0.030063711483 2.000000000000 
      0.300000000000      -0.000000000000      -0.031454458937 2.000000000000 
      0.300000000000      -0.000000000000      -0.032718774805 2.000000000000 
      0.300000000000      -0.000000000000      -0.033868152867 2.000000000000 
      0.300000000000      -0.000000000000      -0.034913042014 2.000000000000 
      0.300000000000      -0.000000000000      -0.035862941239 2.000000000000 
      0.300000000000      -0.000000000000      -0.036726485988 2.000000000000 
      0.300000000000      -0.000000000000      -0.037511526670 2.000000000000 
      0.300000000000      -0.000000000000      -0.038225200017 2.000000000000 
      0.300000000000      -0.000000000000      -0.038873993968 2.000000000000 
      0.300000000000      -0.000000000000      -0.039463806651 2.000000000000 
      0.295463611921      -0.000000000000      -0.026851084862 -0.000000000000 
      0.295463611921      -0.000000000000      -0.028533889282 -0.000000000000 
      0.295463611921      -0.000000000000      -0.030063711482 -0.000000000000 
      0.295463611921      -0.000000000000      -0.031454458937 -0.000000000000 
      0.295463611921      -0.000000000000      -0.032718774805 -0.000000000000 
      0.295463611921      -0.000000000000      -0.033868152867 -0.000000000000 
      0.295463611921      -0.000000000000      -0.034913042014 -0.000000000000 
      0.295463611921      -0.000000000000      -0.035862941238 -0.000000000000 
      0.295463611921      -0.000000000000      -0.036726485988 -0.000000000000 
      0.295463611921      -0.000000000000      -0.037511526670 -0.000000000000 
      0.295463611921      -0.000000000000      -0.038225200016 -0.000000000000 
      0.295463611921      -0.000000000000      -0.038873993968 -0.000000000000 
      0.295463611921      -0.000000000000      -0.039463806651 -0.000000000000 
      0.290700404439      -0.000000000000      -0.026851084862 -0.000000000000 
      0.290700404439      -0.000000000000      -0.028533889282 -0.000000000000 
      0.290700404439      -0.000000000000      -0.030063711482 -0.000000000000 
      0.290700404439      -0.000000000000      -0.031454458937 -0.000000000000 
      0.290700404439      -0.000000000000      -0.032718774805 -0.000000000000 
      0.290700404439      -0.000000000000      -0.033868152866 -0.000000000000 
      0.290700404439      -0.000000000000      -0.034913042013 -0.000000000000 
      0.290700404439      -0.000000000000      -0.035862941238 -0.000000000000 
      0.290700404439      -0.000000000000      -0.036726485988 -0.000000000000 
      0.290700404439      -0.000000000000      -0.037511526669 -0.000000000000 
      0.290700404439      -0.000000000000      -0.038225200016 -0.000000000000 
      0.290700404439      -0.000000000000      -0.038873993968 -0.000000000000 
      0.290700404439      -0.000000000000      -0.039463806651 -0.000000000000 
      0.285699036582      -0.000000000000      -0.026851084862 -0.000000000000 
      0.285699036582      -0.000000000000      -0.028533889282 -0.000000000000 
      0.285699036582      -0.000000000000      -0.030063711482 -0.000000000000 
      0.285699036582      -0.000000000000      -0.031454458936 -0.000000000000 
      0.285699036582      -0.000000000000      -0.032718774804 -0.000000000000 
      0.285699036582      -0.000000000000      -0.033868152866 -0.000000000000 
      0.285699036582      -0.000000000000      -0.034913042013 -0.000000000000 
      0.285699036582      -0.000000000000      -0.035862941238 -0.000000000000 
      0.285699036582      -0.000000000000      -0.036726485987 -0.000000000000 
      0.285699036582      -0.000000000000      -0.037511526669 -0.000000000000 
      0.285699036582      -0.000000000000      -0.038225200016 -0.000000000000 
      0.285699036582      -0.000000000000      -0.038873993968 -0.000000000000 
      0.285699036582      -0.000000000000      -0.039463806651 -0.000000000000 
      0.280447600333      -0.000000000000      -0.026851084862 -0.000000000000 
      0.280447600333      -0.000000000000      -0.028533889281 0.000000000000 
      0.280447600333      -0.000000000000      -0.030063711481 -0.000000000000 
      0.280447600333      -0.000000000000      -0.031454458936 -0.000000000000 
      0.280447600333      -0.000000000000      -0.032718774804 -0.000000000000 
      0.280447600333      -0.000000000000      -0.033868152865 -0.000000000000 
      0.280447600333      -0.000000000000      -0.034913042013 -0.000000000000 
      0.280447600333      -0.000000000000      -0.035862941237 -0.000000000000 
      0.280447600333      -0.000000000000      -0.036726485987 -0.000000000000 
      0.280447600333      -0.000000000000      -0.037511526669 -0.000000000000 
      0.280447600333      -0.000000000000      -0.038225200016 -0.000000000000 
      0.280447600333      -0.000000000000      -0.038873993968 -0.000000000000 
      0.280447600333      -0.000000000000      -0.039463806651 -0.000000000000 
      0.274933592271      -0.000000000000      -0.026851084862 -0.000000000000 
      0.274933592271      -0.000000000000      -0.028533889281 0.000000000000 
      0.274933592271      -0.000000000000      -0.030063711481 0.000000000000 
      0.274933592271      -0.000000000000      -0.031454458935 -0.000000000000 
      0.274933592271      -0.000000000000      -0.032718774803 -0.000000000000 
      0.274933592271      -0.000000000000      -0.033868152865 -0.000000000000 
      0.274933592271      -0.000000000000      -0.034913042012 -0.000000000000 
      0.274933592271      -0.000000000000      -0.035862941237 -0.000000000001 
      0.274933592271      -0.000000000000      -0.036726485987 -0.000000000001 
      0.274933592271      -0.000000000000      -0.037511526669 -0.000000000001 
      0.274933592271      -0.000000000000      -0.038225200016 -0.000000000001 
      0.274933592271      -0.000000000000      -0.038873993967 -0.000000000000 
      0.274933592271      -0.000000000000      -0.039463806651 -0.000000000000 
      0.269143883806      -0.000000000000      -0.026851084861 -0.000000000000 
      0.269143883806      -0.000000000000      -0.028533889281 0.000000000000 
      0.269143883806      -0.000000000000      -0.030063711481 0.000000000000 
      0.269143883806      -0.000000000000      -0.031454458935 0.000000000000 
      0.269143883806      -0.000000000000      -0.032718774803 -0.000000000000 
      0.269143883806      -0.000000000000      -0.033868152864 -0.000000000000 
      0.269143883806      -0.000000000000      -0.034913042012 -0.000000000001 
      0.269143883806      -0.000000000000      -0.035862941237 -0.000000000001 
      0.269143883806      -0.000000000000      -0.036726485986 -0.000000000001 
      0.269143883806      -0.000000000000      -0.037511526668 -0.000000000002 
      0.269143883806      -0.000000000000      -0.038225200015 -0.000000000001 
      0.269143883806      -0.000000000000      -0.038873993967 -0.000000000002 
      0.269143883806      -0.000000000000      -0.039463806651 -0.000000000003 
      0.263064689917      -0.000000000000      -0.026851084861 -0.000000000000 
      0.263064689917      -0.000000000000      -0.028533889281 0.000000000000 
      0.263064689917      -0.000000000000      -0.030063711480 0.000000000000 
      0.263064689917      -0.000000000000      -0.031454458935 0.000000000000 
      0.263064689917      -0.000000000000      -0.032718774802 0.000000000000 
      0.263064689917      -0.000000000000      -0.033868152864 -0.000000000001 
      0.263064689917      -0.000000000000      -0.034913042011 -0.000000000001 
      0.263064689917      -0.000000000000      -0.035862941236 -0.000000000002 
      0.263064689917      -0.000000000000      -0.036726485986 -0.000000000003 
      0.263064689917      -0.000000000000      -0.037511526668 -0.000000000001 
      0.263064689917      -0.000000000000      -0.038225200015 -0.000000000002 
      0.263064689917      -0.000000000000      -0.038873993967 -0.000000000006 
      0.263064689917      -0.000000000000      -0.039463806651 -0.000000000010 
      0.256681536335      -0.000000000000      -0.026851084861 -0.000000000000 
      0.256681536335      -0.000000000000      -0.028533889280 0.000000000000 
      0.256681536335      -0.000000000000      -0.030063711480 0.000000000000 
      0.256681536335      -0.000000000000      -0.031454458934 0.000000000000 
      0.256681536335      -0.000000000000      -0.032718774802 0.000000000000 
      0.256681536335      -0.000000000000      -0.033868152863 0.000000000000 
      0.256681536335      -0.000000000000      -0.034913042011 -0.000000000001 
      0.256681536335      -0.000000000000      -0.035862941236 -0.000000000003 
      0.256681536335      -0.000000000000      -0.036726485986 -0.000000000002 
      0.256681536335      -0.000000000000      -0.037511526668 0.000000000000 
      0.256681536335      -0.000000000000      -0.038225200015 -0.000000000004 
      0.256681536335      -0.000000000000      -0.038873993967 -0.000000000027 
      0.256681536335      -0.000000000000      -0.039463806651 -0.000000000036 
      0.249979225073      -0.000000000000      -0.026851084861 -0.000000000000 
      0.249979225073      -0.000000000000      -0.028533889280 0.000000000000 
      0.249979225073      -0.000000000000      -0.030063711479 0.000000000000 
      0.249979225073      -0.000000000000      -0.031454458933 0.000000000000 
      0.249979225073      -0.000000000000      -0.032718774801 0.000000000001 
      0.249979225073      -0.000000000000      -0.033868152863 0.000000000001 
      0.249979225073      -0.000000000000      -0.034913042010 -0.000000000001 
      0.249979225073      -0.000000000000      -0.035862941235 -0.000000000002 
      0.249979225073      -0.000000000000      -0.036726485985 -0.000000000001 
      0.249979225073      -0.000000000000      -0.037511526667 0.000000000002 
      0.249979225073      -0.000000000000      -0.038225200014 -0.000000000022 
      0.249979225073      -0.000000000000      -0.038873993967 -0.000000000072 
      0.249979225073      -0.000000000000      -0.039463806651 -0.000000000086 
      0.242941798248      -0.000000000000      -0.026851084860 -0.000000000000 
      0.242941798248      -0.000000000000      -0.028533889279 0.000000000000 
      0.242941798248      -0.000000000000      -0.030063711479 0.000000000000 
      0.242941798248      -0.000000000000      -0.031454458933 0.000000000001 
      0.242941798248      -0.000000000000      -0.032718774801 0.000000000001 
      0.242941798248      -0.000000000000      -0.033868152862 0.000000000002 
      0.242941798248      -0.000000000000      -0.034913042010 0.000000000001 
      0.242941798248      -0.000000000000      -0.035862941235 0.000000000000 
      0.242941798248      -0.000000000000      -0.036726485985 0.000000000008 
      0.242941798248      -0.000000000000      -0.037511526667 0.000000000007 
      0.242941798248      -0.000000000000      -0.038225200014 -0.000000000045 
      0.242941798248      -0.000000000000      -0.038873993967 -0.000000000138 
      0.242941798248      -0.000000000000      -0.039463806651 -0.000000000168 
      0.235552500082      -0.000000000000      -0.026851084860 -0.000000000000 
      0.235552500082      -0.000000000000      -0.028533889279 0.000000000000 
      0.235552500082      -0.000000000000      -0.030063711478 0.000000000000 
      0.235552500082      -0.000000000000      -0.031454458932 0.000000000001 
      0.235552500082      -0.000000000000      -0.032718774800 0.000000000002 
      0.235552500082      -0.000000000000      -0.033868152862 0.000000000002 
      0.235552500082      -0.000000000000      -0.034913042009 0.000000000003 
      0.235552500082      -0.000000000000      -0.035862941234 0.000000000005 
      0.235552500082      -0.000000000000      -0.036726485984 0.000000000020 
      0.235552500082      -0.000000000000      -0.037511526666 0.000000000022 
      0.235552500082      -0.000000000000      -0.038225200014 -0.000000000086 
      0.235552500082      -0.000000000000      -0.038873993966 -0.000000000244 
      0.235552500082      -0.000000000000      -0.039463806651 -0.000000000267 
      0.227793737007      -0.000000000000      -0.026851084860 -0.000000000000 
      0.227793737007      -0.000000000000      -0.028533889279 0.000000000000 
      0.227793737007      -0.000000000000      -0.030063711478 0.000000000001 
      0.227793737007      -0.000000000000      -0.031454458932 0.000000000002 
      0.227793737007      -0.000000000000      -0.032718774799 0.000000000002 
      0.227793737007      -0.000000000000      -0.033868152861 0.000000000003 
      0.227793737007      -0.000000000000      -0.034913042008 0.000000000003 
      0.227793737007      -0.000000000000      -0.035862941233 0.000000000014 
      0.227793737007      -0.000000000000      -0.036726485984 0.000000000039 
      0.227793737007      -0.000000000000      -0.037511526666 0.000000000074 
      0.227793737007      -0.000000000000      -0.038225200014 -0.000000000075 
      0.227793737007      -0.000000000000      -0.038873993966 -0.000000000201 
      0.227793737007      -0.000000000000      -0.039463806650 -0.000000000213 
      0.219647035779      -0.000000000000      -0.026851084860 0.000000000000 
      0.219647035779      -0.000000000000      -0.028533889278 0.000000000000 
      0.219647035779      -0.000000000000      -0.030063711477 0.000000000001 
      0.219647035779      -0.000000000000      -0.031454458931 0.000000000002 
      0.219647035779      -0.000000000000      -0.032718774799 0.000000000004 
      0.219647035779      -0.000000000000      -0.033868152861 0.000000000003 
      0.219647035779      -0.000000000000      -0.034913042008 0.000000000003 
      0.219647035779      -0.000000000000      -0.035862941233 0.000000000017 
      0.219647035779      -0.000000000000      -0.036726485983 0.000000000049 
      0.219647035779      -0.000000000000      -0.037511526665 0.000000000113 
      0.219647035779      -0.000000000000      -0.038225200013 -0.000000000017 
      0.219647035779      -0.000000000000      -0.038873993966 0.000000000043 
      0.219647035779      -0.000000000000      -0.039463806650 0.000000000173 
      0.211092999489      -0.000000000000      -0.026851084859 -0.000000000000 
      0.211092999489      -0.000000000000      -0.028533889278 -0.000000000000 
      0.211092999489      -0.000000000000      -0.030063711477 0.000000000000 
      0.211092999489      -0.000000000000      -0.031454458931 0.000000000002 
      0.211092999489      -0.000000000000      -0.032718774798 0.000000000005 
      0.211092999489      -0.000000000000      -0.033868152860 0.000000000004 
      0.211092999489      -0.000000000000      -0.034913042007 -0.000000000005 
      0.211092999489      -0.000000000000      -0.035862941232 0.000000000019 
      0.211092999489      -0.000000000000      -0.036726485983 0.000000000054 
      0.211092999489      -0.000000000000      -0.037511526665 -0.000000000013 
      0.211092999489      -0.000000000000      -0.038225200013 -0.000000000166 
      0.211092999489      -0.000000000000      -0.038873993966 0.000000000763 
      0.211092999489      -0.000000000000      -0.039463806650 0.000000001350 
      0.202111261385      -0.000000000000      -0.026851084859 -0.000000000000 
      0.202111261385      -0.000000000000      -0.028533889277 -0.000000000000 
      0.202111261385      -0.000000000000      -0.030063711476 -0.000000000000 
      0.202111261385      -0.000000000000      -0.031454458930 0.000000000001 
      0.202111261385      -0.000000000000      -0.032718774797 0.000000000008 
      0.202111261385      -0.000000000000      -0.033868152859 0.000000000009 
      0.202111261385      -0.000000000000      -0.034913042006 -0.000000000006 
      0.202111261385      -0.000000000000      -0.035862941232 0.000000000013 
      0.202111261385      -0.000000000000      -0.036726485982 0.000000000033 
      0.202111261385      -0.000000000000      -0.037511526665 -0.000000000120 
      0.202111261385      -0.000000000000      -0.038225200013 -0.000000000928 
      0.202111261385      -0.000000000000      -0.038873993966 0.000000003804 
      0.202111261385      -0.000000000000      -0.039463806650 0.000000007404 
      0.192680436376      -0.000000000000      -0.026851084859 -0.000000000000 
      0.192680436376      -0.000000000000      -0.028533889277 -0.000000000000 
      0.192680436376      -0.000000000000      -0.030063711475 0.000000000000 
      0.192680436376      -0.000000000000      -0.031454458929 0.000000000000 
      0.192680436376      -0.000000000000      -0.032718774796 0.000000000006 
      0.192680436376      -0.000000000000      -0.033868152858 0.000000000006 
      0.192680436376      -0.000000000000      -0.034913042006 -0.000000000000 
      0.192680436376      -0.000000000000      -0.035862941231 -0.000000000000 
      0.192680436376      -0.000000000000      -0.036726485982 -0.000000000000 
      0.192680436376      -0.000000000000      -0.037511526664 -0.000000000050 
      0.192680436376      -0.000000000000      -0.038225200012 -0.000000000795 
      0.192680436376      -0.000000000000      -0.038873993965 0.000000003242 
      0.192680436376      -0.000000000000      -0.039463806650 0.000000006524 
      0.182778070116      -0.000000000000      -0.026851084859 -0.000000000000 
      0.182778070116      -0.000000000000      -0.028533889276 -0.000000000000 
      0.182778070116      -0.000000000000      -0.030063711475 -0.000000000000 
      0.182778070116      -0.000000000000      -0.031454458928 -0.000000000000 
      0.182778070116      -0.000000000000      -0.032718774796 -0.000000000000 
      0.182778070116      -0.000000000000      -0.033868152857 -0.000000000000 
      0.182778070116      -0.000000000000      -0.034913042005 -0.000000000000 
      0.182778070116      -0.000000000000      -0.035862941230 -0.000000000000 
      0.182778070116      -0.000000000000      -0.036726485981 -0.000000000001 
      0.182778070116      -0.000000000000      -0.037511526664 -0.000000000001 
      0.182778070116      -0.000000000000      -0.038225200012 -0.000000000002 
      0.182778070116      -0.000000000000      -0.038873993965 0.000000000002 
      0.182778070116      -0.000000000000      -0.039463806650 0.000000000004 
      0.172380585543      -0.000000000000      -0.026851084858 -0.000000000000 
      0.172380585543      -0.000000000000      -0.028533889276 -0.000000000000 
      0.172380585543      -0.000000000000      -0.030063711474 -0.000000000000 
      0.172380585543      -0.000000000000      -0.031454458927 -0.000000000000 
      0.172380585543      -0.000000000000      -0.032718774795 -0.000000000000 
      0.172380585543      -0.000000000000      -0.033868152857 -0.000000000000 
      0.172380585543      -0.000000000000      -0.034913042004 -0.000000000000 
      0.172380585543      -0.000000000000      -0.035862941229 -0.000000000000 
      0.172380585543      -0.000000000000      -0.036726485980 -0.000000000001 
      0.172380585543      -0.000000000000      -0.037511526663 -0.000000000001 
      0.172380585543      -0.000000000000      -0.038225200011 -0.000000000004 
      0.172380585543      -0.000000000000      -0.038873993965 0.000000000004 
      0.172380585543      -0.000000000000      -0.039463806650 0.000000000009 
      0.161463226742      -0.000000000000      -0.026851084858 -0.000000000000 
      0.300000000000       0.015782671689      -0.021722983972 2.000000000000 
      0.300000000000       0.016771799309      -0.023084401348 2.000000000000 
      0.300000000000       0.017671006236      -0.024322053507 2.000000000000 
      0.300000000000       0.018488467079      -0.025447191833 2.000000000000 
      0.300000000000       0.019231613301      -0.026470044857 2.000000000000 
      0.300000000000       0.019907200775      -0.027399911241 2.000000000000 
      0.300000000000       0.020521371206      -0.028245244318 2.000000000000 
      0.300000000000       0.021079707961      -0.029013728934 2.000000000000 
      0.300000000000       0.021587286830      -0.029712351311 2.000000000000 
      0.300000000000       0.022048722166      -0.030347462563 2.000000000000 
      0.300000000000       0.022468208834      -0.030924836429 2.000000000000 
      0.300000000000       0.022849560351      -0.031449721761 2.000000000000 
      0.300000000000       0.023196243549      -0.031926890245 2.000000000000 
      0.300000000000       0.014029653301      -0.022894313411 2.000000000000 
      0.300000000000       0.014908916194      -0.024329140050 2.000000000000 
      0.300000000000       0.015708246098      -0.025633527903 2.000000000000 
      0.300000000000       0.016434909647      -0.026819335041 2.000000000000 
      0.300000000000       0.017095512873      -0.027897341531 2.000000000000 
      0.300000000000       0.017696061260      -0.028877347430 2.000000000000 
      0.300000000000       0.018242014340      -0.029768261884 2.000000000000 
      0.300000000000       0.018738335322      -0.030578184115 2.000000000000 