TITLE      =  Unstructured grid data
VARIABLES  =  "x0" "x1" "x2" "Phi"
ZONE   T="P2 ZONE0 Hexa", N=17057, E=14978, F=FEPOINT, ET=BRICK, SOLUTIONTIME=0
      0.000000000000      -0.000000000000      -0.025000000000 1.000000000000 
      0.004536388079      -0.000000000000      -0.025000000000 0.000000000000 
      0.009299595561      -0.000000000000      -0.025000000000 -0.000000000000 
      0.014300963418      -0.000000000000      -0.025000000000 -0.000000000001 
      0.019552399667      -0.000000000000      -0.025000000000 -0.000000000003 
      0.025066407729      -0.000000000000      -0.025000000000 -0.000000000007 
      0.030856116194      -0.000000000000      -0.025000000000 -0.000000000007 
      0.036935310083      -0.000000000000      -0.025000000000 -0.000000000003 
      0.043318463665      -0.000000000000      -0.025000000000 -0.000000000004 
      0.050020774927      -0.000000000000      -0.025000000000 -0.000000000003 
      0.057058201752      -0.000000000000      -0.025000000000 -0.000000000003 
      0.064447499918      -0.000000000000      -0.025000000000 -0.000000000002 
      0.072206262993      -0.000000000000      -0.025000000000 -0.000000000002 
      0.080352964221      -0.000000000000      -0.025000000000 -0.000000000001 
      0.088907000511      -0.000000000000      -0.025000000000 -0.000000000001 
      0.097888738615      -0.000000000000      -0.025000000000 -0.000000000001 
      0.107319563624      -0.000000000000      -0.025000000000 -0.000000000001 
      0.117221929884      -0.000000000000      -0.025000000000 -0.000000000000 
      0.127619414457      -0.000000000000      -0.025000000000 -0.000000000000 
      0.138536773258      -0.000000000000      -0.025000000000 -0.000000000000 
      0.150000000000      -0.000000000000      -0.025000000000 -0.000000000000 
      0.161463226742      -0.000000000000      -0.025000000000 -0.000000000000 
      0.172380585543      -0.000000000000      -0.025000000000 -0.000000000000 
      0.182778070116      -0.000000000000      -0.025000000000 -0.000000000000 
      0.192680436376      -0.000000000000      -0.025000000000 0.000000000000 
      0.202111261385      -0.000000000000      -0.025000000000 0.000000000000 
      0.211092999489      -0.000000000000      -0.025000000000 -0.000000000000 
      0.000000000000      -0.009567085809      -0.023096988313 1.000000000000 
      0.000000000000      -0.007725424859      -0.023776412907 1.000000000000 
      0.000000000000      -0.005836134096      -0.024309248010 1.000000000000 
      0.000000000000      -0.003910861626      -0.024692208515 1.000000000000 
      0.000000000000      -0.001961477393      -0.024922933343 1.000000000000 
      0.000000000000       0.001961477393      -0.024922933343 1.000000000000 
      0.000000000000       0.003910861626      -0.024692208515 1.000000000000 
      0.000000000000       0.005836134096      -0.024309248010 1.000000000000 
      0.000000000000       0.007725424859      -0.023776412907 1.000000000000 
      0.000000000000       0.009567085809      -0.023096988313 1.000000000000 
      0.000000000000       0.011349762494      -0.022275163105 1.000000000000 
      0.000000000000       0.013062464118      -0.021316004109 1.000000000000 
      0.000000000000       0.014694631307      -0.020225424859 1.000000000000 
      0.000000000000       0.016236201208      -0.019010149140 1.000000000000 
      0.000000000000       0.017677669530      -0.017677669530 1.000000000000 
      0.000000000000       0.019010149140      -0.016236201208 1.000000000000 
      0.000000000000       0.020225424859      -0.014694631307 1.000000000000 
      0.000000000000       0.021316004109      -0.013062464118 1.000000000000 
      0.000000000000       0.022275163105      -0.011349762494 1.000000000000 
      0.000000000000       0.023096988313      -0.009567085809 1.000000000000 
      0.000000000000       0.023776412907      -0.007725424859 1.000000000000 
      0.000000000000       0.024309248010      -0.005836134096 1.000000000000 
      0.000000000000       0.024692208515      -0.003910861626 1.000000000000 
      0.000000000000       0.024922933343      -0.001961477393 1.000000000000 
      0.000000000000       0.025000000000      -0.000000000000 1.000000000000 
      0.000000000000       0.024922933343       0.001961477393 1.000000000000 
      0.000000000000       0.024692208515       0.003910861626 1.000000000000 
      0.000000000000      -0.000000000000      -0.026851084853 1.000000000000 
      0.211092999489      -0.000000000000      -0.026851084859 0.000000000000 
      0.202111261385      -0.000000000000      -0.026851084859 0.000000000000 
      0.192680436376      -0.000000000000      -0.026851084859 0.000000000000 
      0.182778070116      -0.000000000000      -0.026851084859 -0.000000000000 
      0.172380585543      -0.000000000000      -0.026851084858 -0.000000000000 
      0.161463226742      -0.000000000000      -0.026851084858 -0.000000000000 
      0.150000000000      -0.000000000000      -0.026851084858 -0.000000000000 
      0.138536773258      -0.000000000000      -0.026851084857 -0.000000000000 
      0.127619414457      -0.000000000000      -0.026851084857 -0.000000000001 
      0.117221929884      -0.000000000000      -0.026851084857 -0.000000000001 
      0.117221929884      -0.000000000000      -0.028533889273 0.000000000001 
      0.107319563624      -0.000000000000      -0.026851084856 -0.000000000001 
      0.107319563624      -0.000000000000      -0.028533889272 0.000000000001 
      0.097888738615      -0.000000000000      -0.026851084856 -0.000000000001 
      0.097888738615      -0.000000000000      -0.028533889272 0.000000000001 
      0.088907000511      -0.000000000000      -0.026851084856 -0.000000000001 
      0.088907000511      -0.000000000000      -0.028533889271 0.000000000001 
      0.080352964221      -0.000000000000      -0.026851084856 -0.000000000001 
      0.080352964221      -0.000000000000      -0.028533889271 0.000000000001 
      0.072206262993      -0.000000000000      -0.026851084855 -0.000000000002 
      0.072206262993      -0.000000000000      -0.028533889270 0.000000000001 
      0.064447499918      -0.000000000000      -0.026851084855 -0.000000000002 
      0.064447499918      -0.000000000000      -0.028533889270 0.000000000002 
      0.057058201752      -0.000000000000      -0.026851084855 -0.000000000002 
      0.057058201752      -0.000000000000      -0.028533889269 0.000000000002 
      0.050020774927      -0.000000000000      -0.026851084854 -0.000000000002 
      0.050020774927      -0.000000000000      -0.028533889269 0.000000000004 
      0.043318463665      -0.000000000000      -0.026851084854 -0.000000000005 
      0.043318463665      -0.000000000000      -0.028533889269 0.000000000001 
      0.036935310083      -0.000000000000      -0.026851084854 -0.000000000004 
      0.036935310083      -0.000000000000      -0.028533889268 0.000000000005 
      0.030856116194      -0.000000000000      -0.026851084854 -0.000000000008 
      0.030856116194      -0.000000000000      -0.028533889268 0.000000000016 
      0.025066407729      -0.000000000000      -0.026851084854 -0.000000000021 
      0.019552399667      -0.000000000000      -0.026851084854 -0.000000000006 
      0.014300963418      -0.000000000000      -0.026851084853 -0.000000000003 
      0.009299595561      -0.000000000000      -0.026851084853 0.000000000000 
      0.004536388079      -0.000000000000      -0.026851084853 0.000000000001 
      0.000000000000      -0.002106711837      -0.026768311919 1.000000000000 
      0.000000000000       0.002238743149      -0.028445928809 1.000000000000 
      0.000000000000       0.004463683703      -0.028182589740 1.000000000000 
      0.000000000000       0.006661104162      -0.027745495635 1.000000000000 
      0.000000000000       0.008817456699      -0.027137341322 1.000000000000 
      0.000000000000       0.010919446683      -0.026361876276 1.000000000000 
      0.000000000000       0.012954114648      -0.025423881497 1.000000000000 
      0.000000000000       0.014908916187      -0.024329140034 1.000000000000 
      0.000000000000       0.016771799301      -0.023084401332 1.000000000000 
      0.000000000000       0.018531278695      -0.021697339620 1.000000000000 
      0.000000000000       0.020176506594      -0.020176506594 1.000000000000 
      0.000000000000       0.021697339620      -0.018531278695 1.000000000000 
      0.000000000000       0.023084401332      -0.016771799301 1.000000000000 
      0.000000000000       0.024329140034      -0.014908916187 1.000000000000 
      0.000000000000       0.025423881497      -0.012954114648 1.000000000000 
      0.000000000000       0.026361876276      -0.010919446683 1.000000000000 
      0.000000000000       0.027137341322      -0.008817456699 1.000000000000 
      0.000000000000       0.027745495635      -0.006661104162 1.000000000000 
      0.000000000000       0.028182589740      -0.004463683703 1.000000000000 
      0.000000000000       0.028445928809      -0.002238743149 1.000000000000 
      0.000000000000       0.028533889266      -0.000000000000 1.000000000000 
      0.000000000000       0.002106711837      -0.026768311919 1.000000000000 
      0.000000000000       0.004200435095      -0.026520503442 1.000000000000 
      0.000000000000       0.006268261273      -0.026109187241 1.000000000000 
      0.000000000000       0.008297441537      -0.025536899219 1.000000000000 
      0.000000000000       0.010275465314      -0.024807167721 1.000000000000 
      0.000000000000       0.012190137431      -0.023924491786 1.000000000000 
      0.000000000000       0.014029653297      -0.022894313402 1.000000000000 
      0.000000000000       0.015782671685      -0.021722983963 1.000000000000 
      0.000000000000       0.017438384653      -0.020417725105 1.000000000000 
      0.000000000000       0.018986584182      -0.018986584182 1.000000000000 
      0.000000000000       0.020417725105      -0.017438384653 1.000000000000 
      0.000000000000       0.021722983963      -0.015782671685 1.000000000000 
      0.000000000000       0.022894313402      -0.014029653297 1.000000000000 
      0.000000000000       0.023924491786      -0.012190137431 1.000000000000 
      0.000000000000       0.024807167721      -0.010275465314 1.000000000000 
      0.000000000000       0.025536899219      -0.008297441537 1.000000000000 
      0.000000000000       0.026109187241      -0.006268261273 1.000000000000 
      0.000000000000       0.026520503442      -0.004200435095 1.000000000000 
      0.000000000000       0.026768311919      -0.002106711837 1.000000000000 
      0.000000000000       0.026851084853      -0.000000000000 1.000000000000 
      0.000000000000       0.026768311919       0.002106711837 1.000000000000 
      0.107319563624      -0.024691360229       0.003916213736 -0.000000000000 
      0.117221929884      -0.024691360229       0.003916213736 -0.000000000000 
      0.127619414457      -0.024691360229       0.003916213736 0.000000000002 
      0.138536773258      -0.024691360229       0.003916213736 0.000000000001 
      0.150000000000      -0.024691360229       0.003916213736 0.000000000001 
      0.161463226742      -0.024691360229       0.003916213736 0.000000000001 
      0.172380585543      -0.024691360229       0.003916213736 -0.000000000001 
      0.097888738615      -0.024923674434       0.001952038088 0.000000000000 
      0.107319563624      -0.024923674434       0.001952038088 -0.000000000000 
      0.117221929884      -0.024923674434       0.001952038088 -0.000000000001 
      0.127619414457      -0.024923674434       0.001952038088 0.000000000000 
      0.138536773258      -0.024923674434       0.001952038088 0.000000000002 
      0.150000000000      -0.024923674434       0.001952038088 -0.000000000000 
      0.161463226742      -0.024923674434       0.001952038088 -0.000000000000 
      0.172380585543      -0.024923674434       0.001952038088 0.000000000002 
      0.182778070116      -0.024923674434       0.001952038088 0.000000000004 
      0.097888738615      -0.025000000000      -0.000000000000 -0.000000000000 
      0.107319563624      -0.025000000000      -0.000000000000 -0.000000000000 
      0.117221929884      -0.025000000000      -0.000000000000 -0.000000000001 
      0.127619414457      -0.025000000000      -0.000000000000 -0.000000000001 
      0.138536773258      -0.025000000000       0.000000000000 -0.000000000000 
      0.150000000000      -0.025000000000       0.000000000000 0.000000000003 
      0.161463226742      -0.025000000000      -0.000000000000 0.000000000002 
      0.172380585543      -0.025000000000      -0.000000000000 -0.000000000003 
      0.182778070116      -0.025000000000      -0.000000000000 -0.000000000006 
      0.097888738615      -0.024923674434      -0.001952038088 -0.000000000000 
      0.107319563624      -0.024923674434      -0.001952038088 -0.000000000000 
      0.117221929884      -0.024923674434      -0.001952038088 -0.000000000000 
      0.127619414457      -0.024923674434      -0.001952038088 -0.000000000001 
      0.138536773258      -0.024923674434      -0.001952038088 -0.000000000002 
      0.150000000000      -0.024923674434      -0.001952038088 0.000000000004 
      0.161463226742      -0.024923674434      -0.001952038088 0.000000000009 
      0.172380585543      -0.024923674434      -0.001952038088 0.000000000000 
      0.182778070116      -0.024923674434      -0.001952038088 -0.000000000010 
      0.088907000511      -0.024691360229      -0.003916213736 0.000000000001 
      0.097888738615      -0.024691360229      -0.003916213736 0.000000000000 
      0.107319563624      -0.024691360229      -0.003916213736 0.000000000000 
      0.117221929884      -0.024691360229      -0.003916213736 -0.000000000000 
      0.127619414457      -0.024691360229      -0.003916213736 0.000000000000 
      0.138536773258      -0.024691360229      -0.003916213736 -0.000000000000 
      0.150000000000      -0.024691360229      -0.003916213736 -0.000000000000 
      0.161463226742      -0.024691360229      -0.003916213736 0.000000000006 
      0.172380585543      -0.024691360229      -0.003916213736 0.000000000010 
      0.182778070116      -0.024691360229      -0.003916213736 0.000000000007 
      0.080352964221      -0.024307363863      -0.005843976562 0.000000000001 
      0.088907000511      -0.024307363863      -0.005843976562 0.000000000000 
      0.097888738615      -0.024307363863      -0.005843976562 0.000000000000 
      0.107319563624      -0.024307363863      -0.005843976562 0.000000000000 
      0.117221929884      -0.024307363863      -0.005843976562 0.000000000000 
      0.127619414457      -0.024307363863      -0.005843976562 -0.000000000000 
      0.138536773258      -0.024307363863      -0.005843976562 -0.000000000000 
      0.150000000000      -0.024307363863      -0.005843976562 -0.000000000000 
      0.161463226742      -0.024307363863      -0.005843976562 -0.000000000000 
      0.172380585543      -0.024307363863      -0.005843976562 0.000000000004 
      0.182778070116      -0.024307363863      -0.005843976562 0.000000000009 
      0.080352964221      -0.023779745916      -0.007715159375 0.000000000000 
      0.088907000511      -0.023779745916      -0.007715159375 0.000000000000 
      0.097888738615      -0.023779745916      -0.007715159375 -0.000000000000 
      0.107319563624      -0.023779745916      -0.007715159375 0.000000000000 
      0.117221929884      -0.023779745916      -0.007715159375 -0.000000000000 
      0.127619414457      -0.023779745916      -0.007715159375 -0.000000000000 
      0.138536773258      -0.023779745916      -0.007715159375 -0.000000000000 
      0.150000000000      -0.023779745916      -0.007715159375 -0.000000000000 
      0.161463226742      -0.023779745916      -0.007715159375 -0.000000000000 
      0.172380585543      -0.023779745916      -0.007715159375 0.000000000000 
      0.182778070116      -0.023779745916      -0.007715159375 0.000000000000 
      0.080352964221      -0.023096988313      -0.009567085809 -0.000000000000 
      0.088907000511      -0.023096988313      -0.009567085809 -0.000000000000 
      0.097888738615      -0.023096988313      -0.009567085809 0.000000000000 
      0.107319563624      -0.023096988313      -0.009567085809 -0.000000000000 
      0.117221929884      -0.023096988313      -0.009567085809 -0.000000000000 
      0.127619414457      -0.023096988313      -0.009567085809 -0.000000000000 
      0.138536773258      -0.023096988313      -0.009567085809 -0.000000000000 
      0.150000000000      -0.023096988313      -0.009567085809 0.000000000000 
      0.161463226742      -0.023096988313      -0.009567085809 0.000000000000 
      0.172380585543      -0.023096988313      -0.009567085809 0.000000000000 
      0.182778070116      -0.023096988313      -0.009567085809 0.000000000000 
      0.080352964221      -0.022270261104      -0.011359378080 0.000000000000 
      0.088907000511      -0.022270261104      -0.011359378080 0.000000000000 
      0.097888738615      -0.022270261104      -0.011359378080 -0.000000000000 
      0.107319563624      -0.022270261104      -0.011359378080 -0.000000000000 
      0.117221929884      -0.022270261104      -0.011359378080 -0.000000000000 
      0.127619414457      -0.022270261104      -0.011359378080 -0.000000000000 
      0.138536773258      -0.022270261104      -0.011359378080 0.000000000000 
      0.150000000000      -0.022270261104      -0.011359378080 0.000000000000 
      0.161463226742      -0.022270261104      -0.011359378080 0.000000000000 
      0.172380585543      -0.022270261104      -0.011359378080 0.000000000000 
      0.182778070116      -0.022270261104      -0.011359378080 0.000000000000 
      0.080352964221      -0.021320217276      -0.013055586364 -0.000000000000 
      0.088907000511      -0.021320217276      -0.013055586364 -0.000000000000 
      0.097888738615      -0.021320217276      -0.013055586364 -0.000000000000 
      0.107319563624      -0.021320217276      -0.013055586364 -0.000000000000 
      0.117221929884      -0.021320217276      -0.013055586364 -0.000000000000 
      0.127619414457      -0.021320217276      -0.013055586364 0.000000000000 
      0.138536773258      -0.021320217276      -0.013055586364 0.000000000000 
      0.150000000000      -0.021320217276      -0.013055586364 0.000000000000 
      0.161463226742      -0.021320217276      -0.013055586364 0.000000000000 
      0.172380585543      -0.021320217276      -0.013055586364 0.000000000000 
      0.080352964221      -0.020228609544      -0.014690246965 0.000000000000 
      0.088907000511      -0.020228609544      -0.014690246965 -0.000000000000 
      0.097888738615      -0.020228609544      -0.014690246965 -0.000000000000 
      0.107319563624      -0.020228609544      -0.014690246965 0.000000000000 
      0.117221929884      -0.020228609544      -0.014690246965 -0.000000000000 
      0.127619414457      -0.020228609544      -0.014690246965 0.000000000000 
      0.138536773258      -0.020228609544      -0.014690246965 0.000000000000 
      0.004536388079      -0.009567085809      -0.023096988313 0.000000000000 
      0.009299595561      -0.009567085809      -0.023096988313 -0.000000000001 
      0.014300963418      -0.009567085809      -0.023096988313 0.000000000002 
      0.019552399667      -0.009567085809      -0.023096988313 -0.000000000001 
      0.025066407729      -0.009567085809      -0.023096988313 0.000000000002 
      0.030856116194      -0.009567085809      -0.023096988313 -0.000000000001 
      0.036935310083      -0.009567085809      -0.023096988313 0.000000000001 
      0.043318463665      -0.009567085809      -0.023096988313 0.000000000000 
      0.050020774927      -0.009567085809      -0.023096988313 0.000000000000 
      0.057058201752      -0.009567085809      -0.023096988313 0.000000000000 
      0.064447499918      -0.009567085809      -0.023096988313 0.000000000000 
      0.072206262993      -0.009567085809      -0.023096988313 0.000000000000 
      0.080352964221      -0.009567085809      -0.023096988313 0.000000000000 
      0.088907000511      -0.009567085809      -0.023096988313 0.000000000000 
      0.097888738615      -0.009567085809      -0.023096988313 0.000000000000 
      0.107319563624      -0.009567085809      -0.023096988313 0.000000000000 
      0.117221929884      -0.009567085809      -0.023096988313 0.000000000000 
      0.127619414457      -0.009567085809      -0.023096988313 0.000000000000 
      0.138536773258      -0.009567085809      -0.023096988313 0.000000000000 
      0.150000000000      -0.009567085809      -0.023096988313 0.000000000000 
      0.161463226742      -0.009567085809      -0.023096988313 0.000000000000 
      0.004536388079      -0.007715159375      -0.023779745916 -0.000000000000 
      0.009299595561      -0.007715159375      -0.023779745916 0.000000000000 
      0.014300963418      -0.007715159375      -0.023779745916 -0.000000000000 
      0.019552399667      -0.007715159375      -0.023779745916 0.000000000000 
      0.025066407729      -0.007715159375      -0.023779745916 -0.000000000000 
      0.030856116194      -0.007715159375      -0.023779745916 0.000000000000 
      0.036935310083      -0.007715159375      -0.023779745916 0.000000000000 
      0.043318463665      -0.007715159375      -0.023779745916 0.000000000000 
      0.050020774927      -0.007715159375      -0.023779745916 0.000000000000 
      0.057058201752      -0.007715159375      -0.023779745916 0.000000000000 
      0.064447499918      -0.007715159375      -0.023779745916 0.000000000000 
      0.072206262993      -0.007715159375      -0.023779745916 0.000000000000 
      0.080352964221      -0.007715159375      -0.023779745916 0.000000000000 
      0.088907000511      -0.007715159375      -0.023779745916 0.000000000000 
      0.097888738615      -0.007715159375      -0.023779745916 0.000000000000 
      0.107319563624      -0.007715159375      -0.023779745916 0.000000000000 
      0.117221929884      -0.007715159375      -0.023779745916 0.000000000000 
      0.127619414457      -0.007715159375      -0.023779745916 0.000000000000 
      0.138536773258      -0.007715159375      -0.023779745916 0.000000000000 
      0.150000000000      -0.007715159375      -0.023779745916 0.000000000000 
      0.161463226742      -0.007715159375      -0.023779745916 0.000000000000 
      0.172380585543      -0.007715159375      -0.023779745916 0.000000000000 
      0.182778070116      -0.007715159375      -0.023779745916 0.000000000000 
      0.192680436376      -0.007715159375      -0.023779745916 0.000000000000 
      0.202111261385      -0.007715159375      -0.023779745916 0.000000000000 
      0.004536388079      -0.005843976562      -0.024307363863 0.000000000001 
      0.009299595561      -0.005843976562      -0.024307363863 -0.000000000001 
      0.014300963418      -0.005843976562      -0.024307363863 0.000000000001 
      0.019552399667      -0.005843976562      -0.024307363863 -0.000000000001 
      0.025066407729      -0.005843976562      -0.024307363863 0.000000000001 
      0.030856116194      -0.005843976562      -0.024307363863 0.000000000001 
      0.036935310083      -0.005843976562      -0.024307363863 0.000000000000 
      0.043318463665      -0.005843976562      -0.024307363863 0.000000000001 
      0.050020774927      -0.005843976562      -0.024307363863 0.000000000000 
      0.057058201752      -0.005843976562      -0.024307363863 0.000000000001 
      0.064447499918      -0.005843976562      -0.024307363863 0.000000000000 
      0.072206262993      -0.005843976562      -0.024307363863 0.000000000000 
      0.080352964221      -0.005843976562      -0.024307363863 0.000000000000 
      0.088907000511      -0.005843976562      -0.024307363863 0.000000000000 
      0.097888738615      -0.005843976562      -0.024307363863 0.000000000000 
      0.107319563624      -0.005843976562      -0.024307363863 0.000000000000 
      0.117221929884      -0.005843976562      -0.024307363863 0.000000000000 
      0.127619414457      -0.005843976562      -0.024307363863 0.000000000000 
      0.138536773258      -0.005843976562      -0.024307363863 0.000000000000 
      0.150000000000      -0.005843976562      -0.024307363863 0.000000000000 
      0.161463226742      -0.005843976562      -0.024307363863 0.000000000000 
      0.172380585543      -0.005843976562      -0.024307363863 0.000000000000 
      0.182778070116      -0.005843976562      -0.024307363863 0.000000000000 
      0.192680436376      -0.005843976562      -0.024307363863 0.000000000000 
      0.202111261385      -0.005843976562      -0.024307363863 0.000000000000 
      0.004536388079      -0.003916213736      -0.024691360229 -0.000000000001 
      0.009299595561      -0.003916213736      -0.024691360229 0.000000000001 
      0.014300963418      -0.003916213736      -0.024691360229 -0.000000000001 
      0.019552399667      -0.003916213736      -0.024691360229 -0.000000000000 
      0.025066407729      -0.003916213736      -0.024691360229 0.000000000000 
      0.030856116194      -0.003916213736      -0.024691360229 -0.000000000000 
      0.036935310083      -0.003916213736      -0.024691360229 -0.000000000001 
      0.043318463665      -0.003916213736      -0.024691360229 -0.000000000001 
      0.050020774927      -0.003916213736      -0.024691360229 -0.000000000001 
      0.057058201752      -0.003916213736      -0.024691360229 -0.000000000001 
      0.064447499918      -0.003916213736      -0.024691360229 -0.000000000001 
      0.072206262993      -0.003916213736      -0.024691360229 -0.000000000001 
      0.080352964221      -0.003916213736      -0.024691360229 -0.000000000001 
      0.088907000511      -0.003916213736      -0.024691360229 -0.000000000000 
      0.097888738615      -0.003916213736      -0.024691360229 -0.000000000000 
      0.107319563624      -0.003916213736      -0.024691360229 -0.000000000000 
      0.117221929884      -0.003916213736      -0.024691360229 -0.000000000000 
      0.127619414457      -0.003916213736      -0.024691360229 -0.000000000000 
      0.138536773258      -0.003916213736      -0.024691360229 0.000000000000 
      0.150000000000      -0.003916213736      -0.024691360229 0.000000000000 
      0.161463226742      -0.003916213736      -0.024691360229 0.000000000000 
      0.172380585543      -0.003916213736      -0.024691360229 0.000000000000 
      0.182778070116      -0.003916213736      -0.024691360229 0.000000000000 
      0.192680436376      -0.003916213736      -0.024691360229 0.000000000000 
      0.202111261385      -0.003916213736      -0.024691360229 0.000000000000 
      0.004536388079      -0.001952038088      -0.024923674434 -0.000000000003 
      0.009299595561      -0.001952038088      -0.024923674434 0.000000000002 
      0.014300963418      -0.001952038088      -0.024923674434 -0.000000000001 
      0.019552399667      -0.001952038088      -0.024923674434 -0.000000000002 
      0.025066407729      -0.001952038088      -0.024923674434 -0.000000000006 
      0.030856116194      -0.001952038088      -0.024923674434 -0.000000000005 
      0.036935310083      -0.001952038088      -0.024923674434 -0.000000000002 
      0.043318463665      -0.001952038088      -0.024923674434 -0.000000000002 
      0.050020774927      -0.001952038088      -0.024923674434 -0.000000000002 
      0.057058201752      -0.001952038088      -0.024923674434 -0.000000000002 
      0.064447499918      -0.001952038088      -0.024923674434 -0.000000000001 
      0.072206262993      -0.001952038088      -0.024923674434 -0.000000000001 
      0.080352964221      -0.001952038088      -0.024923674434 -0.000000000001 
      0.088907000511      -0.001952038088      -0.024923674434 -0.000000000001 
      0.097888738615      -0.001952038088      -0.024923674434 -0.000000000001 
      0.107319563624      -0.001952038088      -0.024923674434 -0.000000000001 
      0.117221929884      -0.001952038088      -0.024923674434 -0.000000000000 
      0.127619414457      -0.001952038088      -0.024923674434 -0.000000000000 
      0.138536773258      -0.001952038088      -0.024923674434 -0.000000000000 
      0.150000000000      -0.001952038088      -0.024923674434 -0.000000000000 
      0.161463226742      -0.001952038088      -0.024923674434 -0.000000000000 
      0.172380585543      -0.001952038088      -0.024923674434 -0.000000000000 
      0.182778070116      -0.001952038088      -0.024923674434 -0.000000000000 
      0.192680436376      -0.001952038088      -0.024923674434 -0.000000000000 
      0.202111261385      -0.001952038088      -0.024923674434 -0.000000000000 
      0.211092999489      -0.001952038088      -0.024923674434 -0.000000000000 
      0.117221929884       0.022270261104       0.011359378080 -0.000000000000 
      0.107319563624       0.022270261104       0.011359378080 -0.000000000000 
      0.097888738615       0.022270261104       0.011359378080 0.000000000000 
      0.088907000511       0.022270261104       0.011359378080 -0.000000000002 
      0.080352964221       0.022270261104       0.011359378080 0.000000000000 
      0.072206262993       0.022270261104       0.011359378080 -0.000000000000 
      0.064447499918       0.022270261104       0.011359378080 -0.000000000004 
      0.127619414457       0.023096988313       0.009567085809 0.000000000000 
      0.117221929884       0.023096988313       0.009567085809 0.000000000000 
      0.107319563624       0.023096988313       0.009567085809 0.000000000000 
      0.097888738615       0.023096988313       0.009567085809 0.000000000000 
      0.088907000511       0.023096988313       0.009567085809 -0.000000000001 
      0.080352964221       0.023096988313       0.009567085809 -0.000000000000 