TITLE      =  Unstructured grid data
VARIABLES  =  "x0" "x1" "x2" "Phi"
ZONE   T="P5 ZONE0 Hexa", N=16214, E=14098, F=FEPOINT, ET=BRICK, SOLUTIONTIME=0
      0.000000000000      -0.000000000000      -0.025000000000 1.000000000000 
      0.004536388079      -0.000000000000      -0.025000000000 0.000000000000 
      0.009299595561      -0.000000000000      -0.025000000000 -0.000000000000 
      0.014300963418      -0.000000000000      -0.025000000000 -0.000000000001 
      0.019552399667      -0.000000000000      -0.025000000000 -0.000000000001 
      0.025066407729      -0.000000000000      -0.025000000000 -0.000000000005 
      0.030856116194      -0.000000000000      -0.025000000000 -0.000000000007 
      0.036935310083      -0.000000000000      -0.025000000000 -0.000000000003 
      0.043318463665      -0.000000000000      -0.025000000000 -0.000000000004 
      0.050020774927      -0.000000000000      -0.025000000000 -0.000000000003 
      0.057058201752      -0.000000000000      -0.025000000000 -0.000000000003 
      0.064447499918      -0.000000000000      -0.025000000000 -0.000000000002 
      0.072206262993      -0.000000000000      -0.025000000000 -0.000000000002 
      0.080352964221      -0.000000000000      -0.025000000000 -0.000000000001 
      0.088907000511      -0.000000000000      -0.025000000000 -0.000000000001 
      0.097888738615      -0.000000000000      -0.025000000000 -0.000000000001 
      0.107319563624      -0.000000000000      -0.025000000000 -0.000000000001 
      0.117221929884      -0.000000000000      -0.025000000000 -0.000000000000 
      0.127619414457      -0.000000000000      -0.025000000000 -0.000000000000 
      0.138536773258      -0.000000000000      -0.025000000000 -0.000000000000 
      0.150000000000      -0.000000000000      -0.025000000000 -0.000000000000 
      0.161463226742      -0.000000000000      -0.025000000000 -0.000000000000 
      0.172380585543      -0.000000000000      -0.025000000000 -0.000000000000 
      0.182778070116      -0.000000000000      -0.025000000000 -0.000000000000 
      0.192680436376      -0.000000000000      -0.025000000000 0.000000000000 
      0.202111261385      -0.000000000000      -0.025000000000 0.000000000000 
      0.211092999489      -0.000000000000      -0.025000000000 0.000000000000 
      0.219647035779      -0.000000000000      -0.025000000000 0.000000000000 
      0.000000000000      -0.000000000000      -0.040000000000 1.000000000274 
      0.004536388079      -0.000000000000      -0.040000000000 -0.000000025253 
      0.009299595561      -0.000000000000      -0.040000000000 -0.000000029689 
      0.014300963418      -0.000000000000      -0.040000000000 -0.000000016610 
      0.019552399667      -0.000000000000      -0.040000000000 0.000000009237 
      0.025066407729      -0.000000000000      -0.040000000000 -0.000000000394 
      0.030856116194      -0.000000000000      -0.040000000000 0.000000016538 
      0.036935310083      -0.000000000000      -0.040000000000 0.000000014824 
      0.043318463665      -0.000000000000      -0.040000000000 0.000000006210 
      0.050020774927      -0.000000000000      -0.040000000000 0.000000000275 
      0.057058201752      -0.000000000000      -0.040000000000 -0.000000001443 
      0.064447499918      -0.000000000000      -0.040000000000 0.000000001835 
      0.072206262993      -0.000000000000      -0.040000000000 -0.000000000401 
      0.080352964221      -0.000000000000      -0.040000000000 0.000000001816 
      0.088907000511      -0.000000000000      -0.040000000000 0.000000000569 
      0.097888738615      -0.000000000000      -0.040000000000 0.000000001172 
      0.107319563624      -0.000000000000      -0.040000000000 0.000000000673 
      0.117221929884      -0.000000000000      -0.040000000000 0.000000000537 
      0.127619414457      -0.000000000000      -0.040000000000 0.000000000353 
      0.138536773258      -0.000000000000      -0.040000000000 0.000000000194 
      0.150000000000      -0.000000000000      -0.040000000000 0.000000000129 
      0.161463226742      -0.000000000000      -0.040000000000 0.000000000032 
      0.172380585543      -0.000000000000      -0.040000000000 0.000000000017 
      0.182778070116      -0.000000000000      -0.040000000000 0.000000000002 
      0.192680436376      -0.000000000000      -0.040000000000 0.000000005041 
      0.202111261385      -0.000000000000      -0.040000000000 0.000000005842 
      0.211092999489      -0.000000000000      -0.040000000000 0.000000001992 
      0.000000000000      -0.035640260967      -0.018159619990 0.999999999871 
      0.000000000000      -0.034105606574      -0.020899942589 0.999999999900 
      0.000000000000      -0.032360679775      -0.023511410092 0.999999999965 
      0.000000000000      -0.030416238624      -0.025977921933 1.000000000000 
      0.000000000000      -0.028284271247      -0.028284271247 1.000000000000 
      0.000000000000      -0.025977921933      -0.030416238624 1.000000000000 
      0.000000000000      -0.023511410092      -0.032360679775 1.000000000000 
      0.000000000000      -0.020899942589      -0.034105606574 1.000000000003 
      0.000000000000      -0.018159619990      -0.035640260967 1.000000000012 
      0.000000000000      -0.015307337295      -0.036955181300 1.000000000030 
      0.000000000000      -0.012360679775      -0.038042260652 1.000000000065 
      0.000000000000      -0.009337814554      -0.038894796816 1.000000000119 
      0.000000000000      -0.006257378602      -0.039507533624 1.000000000188 
      0.000000000000      -0.003138363829      -0.039876693349 1.000000000253 
      0.000000000000      -0.019010149140      -0.016236201208 1.000000000000 
      0.000000000000      -0.017677669530      -0.017677669530 1.000000000000 
      0.000000000000      -0.016236201208      -0.019010149140 1.000000000000 
      0.000000000000      -0.014694631307      -0.020225424859 1.000000000000 
      0.000000000000      -0.013062464118      -0.021316004109 1.000000000000 
      0.000000000000      -0.011349762494      -0.022275163105 1.000000000000 
      0.000000000000      -0.009567085809      -0.023096988313 1.000000000000 
      0.000000000000      -0.007725424859      -0.023776412907 1.000000000000 
      0.000000000000      -0.005836134096      -0.024309248010 1.000000000000 
      0.000000000000      -0.003910861626      -0.024692208515 1.000000000000 
      0.000000000000      -0.001961477393      -0.024922933343 1.000000000000 
      0.000000000000       0.001961477393      -0.024922933343 1.000000000000 
      0.000000000000       0.003910861626      -0.024692208515 1.000000000000 
      0.000000000000       0.005836134096      -0.024309248010 1.000000000000 
      0.000000000000       0.007725424859      -0.023776412907 1.000000000000 
      0.000000000000       0.009567085809      -0.023096988313 1.000000000000 
      0.000000000000       0.011349762494      -0.022275163105 1.000000000000 
      0.000000000000       0.013062464118      -0.021316004109 1.000000000000 
      0.000000000000       0.014694631307      -0.020225424859 1.000000000000 
      0.000000000000       0.003138363829      -0.039876693349 1.000000000197 
      0.000000000000       0.006257378602      -0.039507533624 0.999999999968 
      0.000000000000       0.009337814554      -0.038894796816 0.999999999599 
      0.000000000000       0.012360679775      -0.038042260652 0.999999999231 
      0.000000000000       0.015307337295      -0.036955181300 0.999999999789 
      0.000000000000       0.018159619990      -0.035640260967 1.000000000252 
      0.000000000000       0.020899942589      -0.034105606574 1.000000000000 
      0.000000000000       0.023511410092      -0.032360679775 1.000000000000 
      0.000000000000      -0.000000000000      -0.026851084853 1.000000000000 
      0.000000000000      -0.000000000000      -0.028533889266 1.000000000000 
      0.000000000000      -0.000000000000      -0.030063711462 1.000000000000 
      0.000000000000      -0.000000000000      -0.031454458914 1.000000000000 
      0.000000000000      -0.000000000000      -0.032718774781 1.000000000000 
      0.000000000000      -0.000000000000      -0.033868152842 1.000000000000 
      0.000000000000      -0.000000000000      -0.034913041991 0.999999999999 
      0.000000000000      -0.000000000000      -0.035862941217 0.999999999997 
      0.000000000000      -0.000000000000      -0.036726485969 0.999999999995 
      0.000000000000      -0.000000000000      -0.037511526654 1.000000000002 
      0.000000000000      -0.000000000000      -0.038225200004 1.000000000040 
      0.000000000000      -0.000000000000      -0.038873993960 1.000000000255 
      0.000000000000      -0.000000000000      -0.039463806647 1.000000000357 
      0.219647035779      -0.000000000000      -0.026851084860 0.000000000000 
      0.219647035779      -0.000000000000      -0.028533889278 0.000000000000 
      0.219647035779      -0.000000000000      -0.030063711477 0.000000000001 
      0.219647035779      -0.000000000000      -0.031454458931 0.000000000002 
      0.219647035779      -0.000000000000      -0.032718774799 0.000000000007 
      0.219647035779      -0.000000000000      -0.033868152861 0.000000000001 
      0.219647035779      -0.000000000000      -0.034913042008 0.000000000002 
      0.219647035779      -0.000000000000      -0.035862941233 0.000000000020 
      0.219647035779      -0.000000000000      -0.036726485983 0.000000000068 
      0.219647035779      -0.000000000000      -0.037511526665 0.000000000161 
      0.219647035779      -0.000000000000      -0.038225200013 0.000000000055 
      0.219647035779      -0.000000000000      -0.038873993966 0.000000002348 
      0.219647035779      -0.000000000000      -0.039463806650 0.000000007246 
      0.211092999489      -0.000000000000      -0.026851084859 -0.000000000000 
      0.211092999489      -0.000000000000      -0.028533889278 -0.000000000000 
      0.211092999489      -0.000000000000      -0.030063711477 0.000000000000 
      0.211092999489      -0.000000000000      -0.031454458931 0.000000000002 
      0.211092999489      -0.000000000000      -0.032718774798 0.000000000005 
      0.211092999489      -0.000000000000      -0.033868152860 0.000000000003 
      0.211092999489      -0.000000000000      -0.034913042007 -0.000000000006 
      0.211092999489      -0.000000000000      -0.035862941232 0.000000000029 
      0.211092999489      -0.000000000000      -0.036726485983 0.000000000083 
      0.211092999489      -0.000000000000      -0.037511526665 0.000000000033 
      0.211092999489      -0.000000000000      -0.038225200013 -0.000000000139 
      0.211092999489      -0.000000000000      -0.038873993966 0.000000001954 
      0.211092999489      -0.000000000000      -0.039463806650 0.000000003745 
      0.202111261385      -0.000000000000      -0.026851084859 -0.000000000000 
      0.202111261385      -0.000000000000      -0.028533889277 -0.000000000000 
      0.202111261385      -0.000000000000      -0.030063711476 -0.000000000000 
      0.202111261385      -0.000000000000      -0.031454458930 0.000000000002 
      0.202111261385      -0.000000000000      -0.032718774797 0.000000000007 
      0.202111261385      -0.000000000000      -0.033868152859 0.000000000008 
      0.202111261385      -0.000000000000      -0.034913042006 -0.000000000007 
      0.202111261385      -0.000000000000      -0.035862941232 0.000000000019 
      0.202111261385      -0.000000000000      -0.036726485982 0.000000000051 
      0.202111261385      -0.000000000000      -0.037511526665 -0.000000000109 
      0.202111261385      -0.000000000000      -0.038225200013 -0.000000001047 
      0.202111261385      -0.000000000000      -0.038873993966 0.000000003910 
      0.202111261385      -0.000000000000      -0.039463806650 0.000000007742 
      0.192680436376      -0.000000000000      -0.026851084859 -0.000000000000 
      0.192680436376      -0.000000000000      -0.028533889277 -0.000000000000 
      0.192680436376      -0.000000000000      -0.030063711475 0.000000000000 
      0.192680436376      -0.000000000000      -0.031454458929 0.000000000000 
      0.192680436376      -0.000000000000      -0.032718774796 0.000000000006 
      0.192680436376      -0.000000000000      -0.033868152858 0.000000000006 
      0.192680436376      -0.000000000000      -0.034913042006 -0.000000000000 
      0.192680436376      -0.000000000000      -0.035862941231 -0.000000000000 
      0.192680436376      -0.000000000000      -0.036726485982 -0.000000000000 
      0.192680436376      -0.000000000000      -0.037511526664 -0.000000000060 
      0.192680436376      -0.000000000000      -0.038225200012 -0.000000000913 
      0.192680436376      -0.000000000000      -0.038873993965 0.000000003207 
      0.192680436376      -0.000000000000      -0.039463806650 0.000000006578 
      0.182778070116      -0.000000000000      -0.026851084859 -0.000000000000 
      0.182778070116      -0.000000000000      -0.028533889276 -0.000000000000 
      0.182778070116      -0.000000000000      -0.030063711475 -0.000000000000 
      0.182778070116      -0.000000000000      -0.031454458928 -0.000000000000 
      0.182778070116      -0.000000000000      -0.032718774796 -0.000000000000 
      0.182778070116      -0.000000000000      -0.033868152857 -0.000000000000 
      0.182778070116      -0.000000000000      -0.034913042005 -0.000000000000 
      0.182778070116      -0.000000000000      -0.035862941230 -0.000000000000 
      0.182778070116      -0.000000000000      -0.036726485981 -0.000000000000 
      0.182778070116      -0.000000000000      -0.037511526664 -0.000000000000 
      0.182778070116      -0.000000000000      -0.038225200012 -0.000000000002 
      0.182778070116      -0.000000000000      -0.038873993965 0.000000000002 
      0.182778070116      -0.000000000000      -0.039463806650 0.000000000004 
      0.172380585543      -0.000000000000      -0.026851084858 -0.000000000000 
      0.172380585543      -0.000000000000      -0.028533889276 -0.000000000000 
      0.172380585543      -0.000000000000      -0.030063711474 -0.000000000000 
      0.172380585543      -0.000000000000      -0.031454458927 -0.000000000000 
      0.172380585543      -0.000000000000      -0.032718774795 -0.000000000000 
      0.172380585543      -0.000000000000      -0.033868152857 -0.000000000000 
      0.172380585543      -0.000000000000      -0.034913042004 -0.000000000000 
      0.172380585543      -0.000000000000      -0.035862941229 -0.000000000001 
      0.172380585543      -0.000000000000      -0.036726485980 -0.000000000000 
      0.172380585543      -0.000000000000      -0.037511526663 -0.000000000002 
      0.172380585543      -0.000000000000      -0.038225200011 -0.000000000003 
      0.172380585543      -0.000000000000      -0.038873993965 0.000000000004 
      0.172380585543      -0.000000000000      -0.039463806650 0.000000000014 
      0.161463226742      -0.000000000000      -0.026851084858 -0.000000000000 
      0.161463226742      -0.000000000000      -0.028533889275 -0.000000000000 
      0.161463226742      -0.000000000000      -0.030063711473 -0.000000000000 
      0.161463226742      -0.000000000000      -0.031454458927 -0.000000000000 
      0.161463226742      -0.000000000000      -0.032718774794 -0.000000000001 
      0.161463226742      -0.000000000000      -0.033868152856 -0.000000000000 
      0.161463226742      -0.000000000000      -0.034913042003 -0.000000000001 
      0.161463226742      -0.000000000000      -0.035862941229 0.000000000000 
      0.161463226742      -0.000000000000      -0.036726485979 -0.000000000002 
      0.161463226742      -0.000000000000      -0.037511526663 -0.000000000001 
      0.161463226742      -0.000000000000      -0.038225200011 -0.000000000001 
      0.161463226742      -0.000000000000      -0.038873993964 0.000000000033 
      0.161463226742      -0.000000000000      -0.039463806650 0.000000000053 
      0.150000000000      -0.000000000000      -0.026851084858 -0.000000000000 
      0.150000000000      -0.000000000000      -0.028533889274 -0.000000000000 
      0.150000000000      -0.000000000000      -0.030063711472 -0.000000000000 
      0.150000000000      -0.000000000000      -0.031454458926 -0.000000000000 
      0.150000000000      -0.000000000000      -0.032718774793 -0.000000000000 
      0.150000000000      -0.000000000000      -0.033868152855 -0.000000000001 
      0.150000000000      -0.000000000000      -0.034913042002 0.000000000000 
      0.150000000000      -0.000000000000      -0.035862941228 -0.000000000002 
      0.150000000000      -0.000000000000      -0.036726485979 0.000000000003 
      0.150000000000      -0.000000000000      -0.037511526662 -0.000000000008 
      0.150000000000      -0.000000000000      -0.038225200010 0.000000000005 
      0.150000000000      -0.000000000000      -0.038873993964 0.000000000069 
      0.150000000000      -0.000000000000      -0.039463806649 0.000000000114 
      0.138536773258      -0.000000000000      -0.026851084857 -0.000000000000 
      0.138536773258      -0.000000000000      -0.028533889274 0.000000000000 
      0.138536773258      -0.000000000000      -0.030063711472 -0.000000000000 
      0.138536773258      -0.000000000000      -0.031454458925 -0.000000000000 
      0.138536773258      -0.000000000000      -0.032718774792 -0.000000000001 
      0.138536773258      -0.000000000000      -0.033868152854 0.000000000000 
      0.138536773258      -0.000000000000      -0.034913042001 -0.000000000002 
      0.138536773258      -0.000000000000      -0.035862941227 0.000000000006 
      0.138536773258      -0.000000000000      -0.036726485978 -0.000000000002 
      0.138536773258      -0.000000000000      -0.037511526661 0.000000000006 
      0.138536773258      -0.000000000000      -0.038225200010 -0.000000000008 
      0.138536773258      -0.000000000000      -0.038873993964 0.000000000136 
      0.138536773258      -0.000000000000      -0.039463806649 0.000000000258 
      0.127619414457      -0.000000000000      -0.026851084857 -0.000000000000 
      0.127619414457      -0.000000000000      -0.028533889273 0.000000000000 
      0.127619414457      -0.000000000000      -0.030063711471 -0.000000000000 
      0.127619414457      -0.000000000000      -0.031454458924 -0.000000000001 
      0.127619414457      -0.000000000000      -0.032718774791 -0.000000000000 
      0.127619414457      -0.000000000000      -0.033868152853 -0.000000000001 
      0.127619414457      -0.000000000000      -0.034913042001 0.000000000005 
      0.127619414457      -0.000000000000      -0.035862941226 0.000000000002 
      0.127619414457      -0.000000000000      -0.036726485977 0.000000000023 
      0.127619414457      -0.000000000000      -0.037511526661 -0.000000000002 
      0.127619414457      -0.000000000000      -0.038225200009 0.000000000072 
      0.127619414457      -0.000000000000      -0.038873993963 0.000000000337 
      0.127619414457      -0.000000000000      -0.039463806649 0.000000000413 
      0.117221929884      -0.000000000000      -0.026851084857 -0.000000000000 
      0.117221929884      -0.000000000000      -0.028533889273 0.000000000000 
      0.117221929884      -0.000000000000      -0.030063711470 -0.000000000000 
      0.117221929884      -0.000000000000      -0.031454458923 -0.000000000000 
      0.117221929884      -0.000000000000      -0.032718774790 -0.000000000001 
      0.117221929884      -0.000000000000      -0.033868152852 0.000000000003 
      0.117221929884      -0.000000000000      -0.034913042000 0.000000000003 
      0.117221929884      -0.000000000000      -0.035862941226 0.000000000025 
      0.117221929884      -0.000000000000      -0.036726485977 0.000000000024 
      0.117221929884      -0.000000000000      -0.037511526660 0.000000000037 
      0.117221929884      -0.000000000000      -0.038225200009 0.000000000085 
      0.117221929884      -0.000000000000      -0.038873993963 0.000000000343 
      0.117221929884      -0.000000000000      -0.039463806649 0.000000000569 
      0.107319563624      -0.000000000000      -0.026851084856 -0.000000000001 
      0.107319563624      -0.000000000000      -0.028533889272 0.000000000000 
      0.107319563624      -0.000000000000      -0.030063711469 -0.000000000000 
      0.107319563624      -0.000000000000      -0.031454458922 -0.000000000000 
      0.107319563624      -0.000000000000      -0.032718774789 0.000000000001 
      0.107319563624      -0.000000000000      -0.033868152851 0.000000000002 
      0.107319563624      -0.000000000000      -0.034913041999 0.000000000018 
      0.107319563624      -0.000000000000      -0.035862941225 0.000000000026 
      0.107319563624      -0.000000000000      -0.036726485976 0.000000000053 
      0.107319563624      -0.000000000000      -0.037511526660 -0.000000000015 
      0.107319563624      -0.000000000000      -0.038225200009 -0.000000000038 
      0.107319563624      -0.000000000000      -0.038873993963 0.000000000757 
      0.107319563624      -0.000000000000      -0.039463806649 0.000000001078 
      0.097888738615      -0.000000000000      -0.026851084856 -0.000000000001 
      0.097888738615      -0.000000000000      -0.028533889272 0.000000000000 
      0.097888738615      -0.000000000000      -0.030063711469 -0.000000000000 
      0.097888738615      -0.000000000000      -0.031454458922 0.000000000000 
      0.097888738615      -0.000000000000      -0.032718774789 0.000000000001 
      0.097888738615      -0.000000000000      -0.033868152851 0.000000000009 
      0.097888738615      -0.000000000000      -0.034913041998 0.000000000018 
      0.097888738615      -0.000000000000      -0.035862941224 0.000000000047 
      0.097888738615      -0.000000000000      -0.036726485976 0.000000000026 
      0.097888738615      -0.000000000000      -0.037511526659 -0.000000000101 
      0.097888738615      -0.000000000000      -0.038225200008 -0.000000000070 
      0.097888738615      -0.000000000000      -0.038873993963 0.000000000004 
      0.097888738615      -0.000000000000      -0.039463806649 0.000000000576 
      0.088907000511      -0.000000000000      -0.026851084856 -0.000000000001 
      0.088907000511      -0.000000000000      -0.028533889271 0.000000000000 
      0.088907000511      -0.000000000000      -0.030063711468 -0.000000000000 
      0.088907000511      -0.000000000000      -0.031454458921 0.000000000000 
      0.088907000511      -0.000000000000      -0.032718774788 0.000000000003 
      0.088907000511      -0.000000000000      -0.033868152850 0.000000000009 
      0.088907000511      -0.000000000000      -0.034913041997 0.000000000034 
      0.088907000511      -0.000000000000      -0.035862941223 0.000000000038 
      0.088907000511      -0.000000000000      -0.036726485975 -0.000000000047 
      0.088907000511      -0.000000000000      -0.037511526659 -0.000000000163 
      0.088907000511      -0.000000000000      -0.038225200008 -0.000000000388 
      0.088907000511      -0.000000000000      -0.038873993962 0.000000001359 
      0.088907000511      -0.000000000000      -0.039463806649 0.000000001932 
      0.080352964221      -0.000000000000      -0.026851084856 -0.000000000001 
      0.080352964221      -0.000000000000      -0.028533889271 0.000000000000 
      0.080352964221      -0.000000000000      -0.030063711468 -0.000000000000 
      0.080352964221      -0.000000000000      -0.031454458920 0.000000000001 
      0.080352964221      -0.000000000000      -0.032718774787 0.000000000003 
      0.080352964221      -0.000000000000      -0.033868152849 0.000000000013 
      0.080352964221      -0.000000000000      -0.034913041997 0.000000000046 
      0.080352964221      -0.000000000000      -0.035862941223 0.000000000051 
      0.080352964221      -0.000000000000      -0.036726485974 -0.000000000085 
      0.080352964221      -0.000000000000      -0.037511526658 -0.000000000409 
      0.080352964221      -0.000000000000      -0.038225200008 -0.000000000199 
      0.080352964221      -0.000000000000      -0.038873993962 -0.000000001250 
      0.080352964221      -0.000000000000      -0.039463806648 -0.000000000446 
      0.072206262993      -0.000000000000      -0.026851084855 -0.000000000002 
      0.072206262993      -0.000000000000      -0.028533889270 0.000000000001 
      0.072206262993      -0.000000000000      -0.030063711467 -0.000000000000 
      0.072206262993      -0.000000000000      -0.031454458920 0.000000000001 
      0.072206262993      -0.000000000000      -0.032718774787 0.000000000004 
      0.072206262993      -0.000000000000      -0.033868152848 0.000000000015 
      0.072206262993      -0.000000000000      -0.034913041996 0.000000000037 
      0.072206262993      -0.000000000000      -0.035862941222 0.000000000032 
      0.072206262993      -0.000000000000      -0.036726485974 -0.000000000172 
      0.072206262993      -0.000000000000      -0.037511526658 -0.000000000225 
      0.072206262993      -0.000000000000      -0.038225200007 -0.000000000773 
      0.072206262993      -0.000000000000      -0.038873993962 0.000000001758 
      0.072206262993      -0.000000000000      -0.039463806648 0.000000002280 
      0.064447499918      -0.000000000000      -0.026851084855 -0.000000000002 
      0.064447499918      -0.000000000000      -0.028533889270 0.000000000001 
      0.064447499918      -0.000000000000      -0.030063711467 -0.000000000000 
      0.064447499918      -0.000000000000      -0.031454458919 -0.000000000000 
      0.064447499918      -0.000000000000      -0.032718774786 0.000000000005 
      0.064447499918      -0.000000000000      -0.033868152848 0.000000000012 
      0.064447499918      -0.000000000000      -0.034913041996 0.000000000047 
      0.064447499918      -0.000000000000      -0.035862941222 0.000000000078 
      0.064447499918      -0.000000000000      -0.036726485973 0.000000000001 
      0.064447499918      -0.000000000000      -0.037511526657 -0.000000000426 
      0.064447499918      -0.000000000000      -0.038225200007 -0.000000000112 
      0.064447499918      -0.000000000000      -0.038873993962 -0.000000002736 
      0.064447499918      -0.000000000000      -0.039463806648 -0.000000002103 
      0.057058201752      -0.000000000000      -0.026851084855 -0.000000000002 
      0.057058201752      -0.000000000000      -0.028533889269 0.000000000001 
      0.057058201752      -0.000000000000      -0.030063711466 -0.000000000000 
      0.057058201752      -0.000000000000      -0.031454458919 -0.000000000000 
      0.057058201752      -0.000000000000      -0.032718774785 -0.000000000000 
      0.057058201752      -0.000000000000      -0.033868152847 0.000000000015 
      0.057058201752      -0.000000000000      -0.034913041995 0.000000000007 
      0.057058201752      -0.000000000000      -0.035862941221 0.000000000114 
      0.057058201752      -0.000000000000      -0.036726485973 0.000000000024 
      0.057058201752      -0.000000000000      -0.037511526657 0.000000000045 
      0.057058201752      -0.000000000000      -0.038225200007 -0.000000000449 
      0.057058201752      -0.000000000000      -0.038873993961 0.000000001146 
      0.057058201752      -0.000000000000      -0.039463806648 0.000000000987 
      0.050020774927      -0.000000000000      -0.026851084854 -0.000000000002 
      0.050020774927      -0.000000000000      -0.028533889269 0.000000000001 
      0.050020774927      -0.000000000000      -0.030063711465 0.000000000000 
      0.050020774927      -0.000000000000      -0.031454458918 -0.000000000001 
      0.050020774927      -0.000000000000      -0.032718774785 -0.000000000001 
      0.050020774927      -0.000000000000      -0.033868152847 0.000000000004 
      0.050020774927      -0.000000000000      -0.034913041995 -0.000000000021 
      0.050020774927      -0.000000000000      -0.035862941221 -0.000000000097 
      0.050020774927      -0.000000000000      -0.036726485973 -0.000000000051 
      0.050020774927      -0.000000000000      -0.037511526657 -0.000000000107 
      0.050020774927      -0.000000000000      -0.038225200006 0.000000000036 
      0.050020774927      -0.000000000000      -0.038873993961 -0.000000005261 
      0.050020774927      -0.000000000000      -0.039463806648 -0.000000005325 
      0.043318463665      -0.000000000000      -0.026851084854 -0.000000000003 
      0.043318463665      -0.000000000000      -0.028533889269 0.000000000001 
      0.043318463665      -0.000000000000      -0.030063711465 -0.000000000001 
      0.043318463665      -0.000000000000      -0.031454458917 0.000000000001 
      0.043318463665      -0.000000000000      -0.032718774784 -0.000000000002 
      0.043318463665      -0.000000000000      -0.033868152846 0.000000000005 
      0.043318463665      -0.000000000000      -0.034913041994 0.000000000007 
      0.043318463665      -0.000000000000      -0.035862941220 -0.000000000124 
      0.043318463665      -0.000000000000      -0.036726485972 -0.000000000322 
      0.043318463665      -0.000000000000      -0.037511526656 -0.000000000646 
      0.043318463665      -0.000000000000      -0.038225200006 -0.000000000674 
      0.043318463665      -0.000000000000      -0.038873993961 -0.000000005078 
      0.043318463665      -0.000000000000      -0.039463806648 -0.000000001809 
      0.036935310083      -0.000000000000      -0.026851084854 -0.000000000003 
      0.036935310083      -0.000000000000      -0.028533889268 0.000000000001 
      0.036935310083      -0.000000000000      -0.030063711465 0.000000000000 
      0.036935310083      -0.000000000000      -0.031454458917 -0.000000000001 
      0.036935310083      -0.000000000000      -0.032718774784 0.000000000003 
      0.036935310083      -0.000000000000      -0.033868152846 0.000000000006 