 TITLE="parade results"
 VARIABLES="wavelength [A]"
 "emission coefficient [W/m3/str/m]"
 "absorption coefficient [1/m]"
 "conditional distribution [-]"
 ZONE I=          200 , F=POINT
  7.4676000000E+03  9.8983099248E+14  4.0038992736E+00  0.0000000000E+00
  7.4676075377E+03  1.0112086349E+15  4.0903725482E+00  1.1230630682E-04
  7.4676150754E+03  1.0331244604E+15  4.1790227909E+00  2.2640505345E-04
  7.4676226131E+03  1.0539451398E+15  4.2632431312E+00  3.4352881611E-04
  7.4676301508E+03  1.0845151344E+15  4.3868997756E+00  4.6414147032E-04
  7.4676376884E+03  1.1046979691E+15  4.4685400132E+00  5.8660292791E-04
  7.4676452261E+03  1.1398944045E+15  4.6109107645E+00  7.1481410357E-04
  7.4676527638E+03  1.1592320851E+15  4.6891323256E+00  8.4448859488E-04
  7.4676603015E+03  1.1996807068E+15  4.8527483449E+00  9.7753513137E-04
  7.4676678392E+03  1.2281611379E+15  4.9679526355E+00  1.1144693791E-03
  7.4676753769E+03  1.2541073211E+15  5.0729058094E+00  1.2544733768E-03
  7.4676829146E+03  1.2952209776E+15  5.2392119167E+00  1.3982596590E-03
  7.4676904523E+03  1.3203882506E+15  5.3410143728E+00  1.5457842940E-03
  7.4676979899E+03  1.3679550818E+15  5.5334237867E+00  1.6974112513E-03
  7.4677055276E+03  1.4027085702E+15  5.6740028025E+00  1.8543571555E-03
  7.4677130653E+03  1.4363307688E+15  5.8100057138E+00  2.0144836138E-03
  7.4677206030E+03  1.4848502410E+15  6.0062685918E+00  2.1792429967E-03
  7.4677281407E+03  1.5178409759E+15  6.1397172116E+00  2.3485996884E-03
  7.4677356784E+03  1.5743636620E+15  6.3683533561E+00  2.5230050834E-03
  7.4677432161E+03  1.6063663677E+15  6.4978053644E+00  2.7024034551E-03
  7.4677507538E+03  1.6720943592E+15  6.7636772752E+00  2.8873139979E-03
  7.4677582915E+03  1.7190435466E+15  6.9535882994E+00  3.0785797177E-03
  7.4677658291E+03  1.7626204856E+15  7.1298584662E+00  3.2749512590E-03
  7.4677733668E+03  1.8304759068E+15  7.4043359010E+00  3.4776077675E-03
  7.4677809045E+03  1.8732671621E+15  7.5774279516E+00  3.6865049293E-03
  7.4677884422E+03  1.9526993788E+15  7.8987339090E+00  3.9022956948E-03
  7.4677959799E+03  2.0115832119E+15  8.1369209715E+00  4.1281042176E-03
  7.4678035176E+03  2.0695947824E+15  8.3715797029E+00  4.3582893261E-03
  7.4678110553E+03  2.1518742824E+15  8.7044030160E+00  4.5963870802E-03
  7.4678185930E+03  2.2094928846E+15  8.9374721774E+00  4.8423753159E-03
  7.4678261307E+03  2.3064763138E+15  9.3297733729E+00  5.0970833589E-03
  7.4678336683E+03  2.3630686606E+15  9.5586912973E+00  5.3604533266E-03
  7.4678412060E+03  2.4772104038E+15  1.0020398444E+01  5.6334529759E-03
  7.4678487437E+03  2.5599574713E+15  1.0355113083E+01  5.9175574760E-03
  7.4678562814E+03  2.6382498838E+15  1.0671808494E+01  6.2057429157E-03
  7.4678638191E+03  2.7581528738E+15  1.1156820075E+01  6.5101088502E-03
  7.4678713568E+03  2.8361589704E+15  1.1472357329E+01  6.8193962497E-03
  7.4678788945E+03  2.9786778049E+15  1.2048850753E+01  7.1473625467E-03
  7.4678864322E+03  3.0555545141E+15  1.2359819598E+01  7.4863458760E-03
  7.4678939698E+03  3.2252950383E+15  1.3046425662E+01  7.8405960552E-03
  7.4679015075E+03  3.3463835947E+15  1.3536232898E+01  8.2112494697E-03
  7.4679090452E+03  3.4567037117E+15  1.3982481439E+01  8.5949547116E-03
  7.4679165829E+03  3.6408308279E+15  1.4727281746E+01  8.9952672587E-03
  7.4679241206E+03  3.7527879878E+15  1.5180152180E+01  9.4122794428E-03
  7.4679316583E+03  3.9784562139E+15  1.6092987657E+01  9.8483342505E-03
  7.4679391960E+03  4.1483440901E+15  1.6780189765E+01  1.0312590833E-02
  7.4679467337E+03  4.3158929915E+15  1.7457930642E+01  1.0794067235E-02
  7.4679542714E+03  4.5750208915E+15  1.8506111612E+01  1.1295529308E-02
  7.4679618090E+03  4.7550398927E+15  1.9234294457E+01  1.1821759984E-02
  7.4679693467E+03  5.0923817255E+15  2.0598853387E+01  1.2377170656E-02
  7.4679768844E+03  5.2875056904E+15  2.1388136312E+01  1.2962613269E-02
  7.4679844221E+03  5.7397451513E+15  2.3217459967E+01  1.3584568238E-02
  7.4679919598E+03  6.0913139279E+15  2.4639567357E+01  1.4254430197E-02
  7.4679994975E+03  6.4370163044E+15  2.6037944964E+01  1.4961048496E-02
  7.4680070352E+03  7.0437534943E+15  2.8492217069E+01  1.5721385944E-02
  7.4680145729E+03  7.4514606754E+15  3.0141406172E+01  1.6538939711E-02
  7.4680221106E+03  8.3283666704E+15  3.3688520076E+01  1.7428947762E-02
  7.4680296482E+03  9.0586575072E+15  3.6642570791E+01  1.8409604340E-02
  7.4680371859E+03  9.8428478224E+15  3.9814646688E+01  1.9475680130E-02
  7.4680447236E+03  1.1110408070E+16  4.4941970033E+01  2.0657478005E-02
  7.4680522613E+03  1.2078695363E+16  4.8858724325E+01  2.1910065681E-02
  7.4680597990E+03  1.3961202300E+16  5.6473527474E+01  2.3378758464E-02
  7.4680673367E+03  1.5132208537E+16  6.1210286633E+01  2.5019674381E-02
  7.4680748744E+03  1.7905333727E+16  7.2427670228E+01  2.6883045756E-02
  7.4680824121E+03  2.0150665609E+16  8.1510112342E+01  2.9077355764E-02
  7.4680899497E+03  2.2423529994E+16  9.0703924344E+01  3.1478609972E-02
  7.4680974874E+03  2.6341065139E+16  1.0655048425E+02  3.4229012830E-02
  7.4681050251E+03  2.9034525358E+16  1.1744562039E+02  3.7352286631E-02
  7.4681125628E+03  3.4578370661E+16  1.3987065896E+02  4.0940157925E-02
  7.4681201005E+03  3.9090225973E+16  1.5812126370E+02  4.5095187167E-02
  7.4681276382E+03  4.3836852630E+16  1.7732152634E+02  4.9772409922E-02
  7.4681351759E+03  5.1040925862E+16  2.0646224208E+02  5.5123671682E-02
  7.4681427136E+03  5.6389949713E+16  2.2809922139E+02  6.1182948632E-02
  7.4681502513E+03  6.5949069434E+16  2.6676617848E+02  6.8262957108E-02
  7.4681577889E+03  7.1729077531E+16  2.9014650340E+02  7.6028229596E-02
  7.4681653266E+03  8.3978923335E+16  3.3969753695E+02  8.4810415307E-02
  7.4681728643E+03  9.3129347908E+16  3.7671130857E+02  9.4799611242E-02
  7.4681804020E+03  1.0188601169E+17  4.1213230469E+02  1.0579879622E-01
  7.4681879397E+03  1.1549831073E+17  4.6719450688E+02  1.1805962726E-01
  7.4681954774E+03  1.2430013871E+17  5.0279819370E+02  1.3158465170E-01
  7.4682030151E+03  1.4028597216E+17  5.6746142149E+02  1.4650774075E-01
  7.4682105528E+03  1.5199945504E+17  6.1484284917E+02  1.6299311650E-01
  7.4682180905E+03  1.6334283888E+17  6.6072721395E+02  1.8077893722E-01
  7.4682256281E+03  1.7863504627E+17  7.2258470129E+02  2.0006704882E-01
  7.4682331658E+03  1.8894541278E+17  7.6429047659E+02  2.2079918742E-01
  7.4682407035E+03  2.0490192089E+17  8.2883508239E+02  2.4301282068E-01
  7.4682482412E+03  2.1368353862E+17  8.6435701810E+02  2.6662172466E-01
  7.4682557789E+03  2.2908943009E+17  9.2667436127E+02  2.9159484369E-01
  7.4682633166E+03  2.3868911803E+17  9.6550541816E+02  3.1797831826E-01
  7.4682708543E+03  2.4657882581E+17  9.9741954843E+02  3.4534822334E-01
  7.4682783920E+03  2.5637153862E+17  1.0370313973E+03  3.7371544583E-01
  7.4682859296E+03  2.6131399582E+17  1.0570238011E+03  4.0291375599E-01
  7.4682934673E+03  2.6733117525E+17  1.0813634919E+03  4.3273020757E-01
  7.4683010050E+03  2.6940740604E+17  1.0897619145E+03  4.6300314071E-01
  7.4683085427E+03  2.7066998974E+17  1.0948691075E+03  4.9346438845E-01
  7.4683160804E+03  2.7033509261E+17  1.0935144375E+03  5.2397795922E-01
  7.4683236181E+03  2.6768096846E+17  1.0827784170E+03  5.5432294430E-01
  7.4683311558E+03  2.6467997542E+17  1.0706393004E+03  5.8434897154E-01
  7.4683386935E+03  2.5754123564E+17  1.0417628607E+03  6.1380310128E-01
  7.4683462312E+03  2.5144040722E+17  1.0170848069E+03  6.4251049773E-01
  7.4683537688E+03  2.4345021945E+17  9.8476423170E+02  6.7042313784E-01
  7.4683613065E+03  2.2970720750E+17  9.2917329145E+02  6.9710998997E-01
  7.4683688442E+03  2.2180287690E+17  8.9720001137E+02  7.2257589660E-01
  7.4683763819E+03  2.0654321018E+17  8.3547415213E+02  7.4673531593E-01
  7.4683839196E+03  1.9676724715E+17  7.9593005665E+02  7.6948268483E-01
  7.4683914573E+03  1.8141933991E+17  7.3384726160E+02  7.9081302638E-01
  7.4683989950E+03  1.7021681992E+17  6.8853269580E+02  8.1064588045E-01
  7.4684065327E+03  1.5823542315E+17  6.4006754751E+02  8.2917112373E-01
  7.4684140704E+03  1.4136997040E+17  5.7184623043E+02  8.4606935755E-01
  7.4684216080E+03  1.3227105372E+17  5.3504080993E+02  8.6150315851E-01
  7.4684291457E+03  1.1747513025E+17  4.7519080759E+02  8.7558925143E-01
  7.4684366834E+03  1.0816862481E+17  4.3754568364E+02  8.8831592797E-01
  7.4684442211E+03  9.8124020066E+16  3.9691492351E+02  8.9995117027E-01
  7.4684517588E+03  8.4321280655E+16  3.4108238369E+02  9.1024138338E-01
  7.4684592965E+03  7.7973463448E+16  3.1540525204E+02  9.1939507218E-01
  7.4684668342E+03  6.6942522607E+16  2.7078472959E+02  9.2756857062E-01
  7.4684743719E+03  6.0929371385E+16  2.4646133298E+02  9.3478075441E-01
  7.4684819095E+03  5.2430742900E+16  2.1208409820E+02  9.4145971785E-01
  7.4684894472E+03  4.6975972791E+16  1.9001937176E+02  9.4705780460E-01
  7.4684969849E+03  4.1630130038E+16  1.6839526008E+02  9.5205533360E-01
  7.4685045226E+03  3.4910834229E+16  1.4121548514E+02  9.5637236907E-01
  7.4685120603E+03  3.1744472162E+16  1.2840744531E+02  9.6013183728E-01
  7.4685195980E+03  2.6914006320E+16  1.0886805038E+02  9.6330025059E-01
  7.4685271357E+03  2.4194792787E+16  9.7868741232E+01  9.6632057687E-01
  7.4685346734E+03  2.1427150108E+16  8.6673534580E+01  9.6889372900E-01
  7.4685422111E+03  1.7945184817E+16  7.2588869213E+01  9.7111439303E-01
  7.4685497487E+03  1.6529261636E+16  6.6861412869E+01  9.7318308711E-01
  7.4685572864E+03  1.4144924050E+16  5.7216688060E+01  9.7491316131E-01
  7.4685648241E+03  1.2963097884E+16  5.2436161928E+01  9.7644209805E-01
  7.4685723618E+03  1.1352013488E+16  4.5919271980E+01  9.7781351007E-01
  7.4685798995E+03  1.0391379313E+16  4.2033474807E+01  9.7900049706E-01
  7.4685874372E+03  9.4773646134E+15  3.8336254957E+01  9.8012112668E-01
  7.4685949749E+03  8.3714308583E+15  3.3862716148E+01  9.8112782792E-01
  7.4686025126E+03  7.8811723079E+15  3.1879604012E+01  9.8204450130E-01
  7.4686100503E+03  7.1255942345E+15  2.8823265584E+01  9.8289090745E-01
  7.4686175879E+03  6.7143382228E+15  2.7159721344E+01  9.8367150226E-01
  7.4686251256E+03  6.1888285232E+15  2.5034017137E+01  9.8439926195E-01
  7.4686326633E+03  5.8425655986E+15  2.3633372095E+01  9.8507785225E-01
  7.4686402010E+03  5.5193001615E+15  2.2325752654E+01  9.8574082679E-01
  7.4686477387E+03  5.1204771752E+15  2.0712500415E+01  9.8634092762E-01
  7.4686552764E+03  4.9179296771E+15  1.9893189051E+01  9.8690344800E-01
  7.4686628141E+03  4.6180125484E+15  1.8680014294E+01  9.8744129073E-01
  7.4686703518E+03  4.4324517018E+15  1.7929414500E+01  9.8795175170E-01
  7.4686778894E+03  4.2416451476E+15  1.7157595644E+01  9.8844098494E-01
  7.4686854271E+03  3.9873885637E+15  1.6129119309E+01  9.8890511589E-01
  7.4686929648E+03  3.8669434489E+15  1.5641914816E+01  9.8936414845E-01
  7.4687005025E+03  3.6619745945E+15  1.4812808985E+01  9.8978879174E-01
  7.4687080402E+03  3.5440377113E+15  1.4335750371E+01  9.9019344623E-01
  7.4687155779E+03  3.3764534586E+15  1.3657866498E+01  9.9058377324E-01
  7.4687231156E+03  3.2611483696E+15  1.3191453579E+01  9.9095962995E-01
  7.4687306533E+03  3.1446539656E+15  1.2720229842E+01  9.9132092767E-01
  7.4687381910E+03  2.9887756467E+15  1.2089696859E+01  9.9166686312E-01
  7.4687457286E+03  2.9066923974E+15  1.1757667387E+01  9.9199937716E-01
  7.4687532663E+03  2.7759144456E+15  1.1228666224E+01  9.9231988547E-01
  7.4687608040E+03  2.6935302185E+15  1.0895419286E+01  9.9262837109E-01
  7.4687683417E+03  2.6046713517E+15  1.0535982216E+01  9.9292719831E-01
  7.4687758794E+03  2.4807415900E+15  1.0034682209E+01  9.9321402391E-01
  7.4687834171E+03  2.4216442607E+15  9.7956315474E+00  9.9349052649E-01
  7.4687909548E+03  2.3164527329E+15  9.3701283199E+00  9.9375776290E-01
  7.4687984925E+03  2.2561853818E+15  9.1263448812E+00  9.9401566716E-01
  7.4688060302E+03  2.1670027940E+15  8.7655983485E+00  9.9426514220E-01
  7.4688135678E+03  2.1062580016E+15  8.5198836436E+00  9.9450409685E-01
  7.4688211055E+03  2.0433761536E+15  8.2655244778E+00  9.9473814300E-01
  7.4688286432E+03  1.9575490592E+15  7.9183510275E+00  9.9495977992E-01
  7.4688361809E+03  1.9130090007E+15  7.7381850098E+00  9.9517808572E-01
  7.4688437186E+03  1.8397306804E+15  7.4417717681E+00  9.9538974637E-01
  7.4688512563E+03  1.7943033984E+15  7.2580169021E+00  9.9559471183E-01
  7.4688587940E+03  1.7443244716E+15  7.0558504814E+00  9.9579429622E-01
  7.4688663317E+03  1.6735548929E+15  6.7695851826E+00  9.9598707020E-01
  7.4688738693E+03  1.6404093504E+15  6.6355103615E+00  9.9617398320E-01
  7.4688814070E+03  1.5795879869E+15  6.3894859237E+00  9.9635768059E-01
  7.4688889447E+03  1.5453542143E+15  6.2510091755E+00  9.9653393244E-01
  7.4688964824E+03  1.4931718119E+15  6.0399296228E+00  9.9670531027E-01
  7.4689040201E+03  1.4582408141E+15  5.8986325756E+00  9.9686987515E-01
  7.4689115578E+03  1.4214110926E+15  5.7496551274E+00  9.9703229223E-01
  7.4689190955E+03  1.3704120081E+15  5.5433621351E+00  9.9718975561E-01
  7.4689266332E+03  1.3444227300E+15  5.4382346410E+00  9.9734287673E-01
  7.4689341709E+03  1.3003682420E+15  5.2600327723E+00  9.9749204726E-01
  7.4689417085E+03  1.2735336773E+15  5.1514860660E+00  9.9763721954E-01
  7.4689492462E+03  1.2355507632E+15  4.9978439157E+00  9.9777873600E-01
  7.4689567839E+03  1.2081364759E+15  4.8869522121E+00  9.9791528744E-01
  7.4689643216E+03  1.1803693099E+15  4.7746331023E+00  9.9805000307E-01
  7.4689718593E+03  1.1427916910E+15  4.6226303847E+00  9.9818103314E-01
  7.4689793970E+03  1.1220139169E+15  4.5385835975E+00  9.9830877188E-01
  7.4689869347E+03  1.0893913496E+15  4.4066242283E+00  9.9843349875E-01
  7.4689944724E+03  1.0679292958E+15  4.3198095069E+00  9.9855517516E-01
  7.4690020101E+03  1.0448808269E+15  4.2265776843E+00  9.9867566677E-01
  7.4690095477E+03  1.0125034676E+15  4.0956101893E+00  9.9879170660E-01
  7.4690170854E+03  9.9630153487E+14  4.0300728327E+00  9.9890500649E-01
  7.4690246231E+03  9.6800943609E+14  3.9156303525E+00  9.9901579684E-01
  7.4690321608E+03  9.5107922588E+14  3.8471470894E+00  9.9912403658E-01
  7.4690396985E+03  9.2640915272E+14  3.7473558232E+00  9.9922992999E-01
  7.4690472362E+03  9.0891117965E+14  3.6765759404E+00  9.9933367459E-01
  7.4690547739E+03  8.9087206110E+14  3.6036071061E+00  9.9943518531E-01
  7.4690623116E+03  8.6611340007E+14  3.5034574991E+00  9.9953428216E-01
  7.4690698492E+03  8.5267270408E+14  3.4490894370E+00  9.9963122450E-01
  7.4690773869E+03  8.3095046448E+14  3.3612222555E+00  9.9972618360E-01
  7.4690849246E+03  8.1691450011E+14  3.3044463130E+00  9.9981934374E-01
  7.4690924623E+03  8.0157095647E+14  3.2423811689E+00  9.9991062897E-01
  7.4691000000E+03  7.8297592529E+14  3.1671636495E+00  1.0000000000E+00
