 TITLE = Full grid
 VARIABLES = X Y Z Z(1) Z(2) Z(3) Z(4) Z(5) COLOR
 ZONE F=FEPOINT,ET=TRIANGLE   ,N=        2830 ,E=        5534
  0.88869900000000002       0.99006899999999998       8.58812999999999938E-002  0.91636139277595274       0.48100869731032347       0.69777631243498606       8.54477302134746403E-002  7.02171016421595118E-003   1.0000000    
  0.91619700000000004       0.98799599999999999       0.12977200000000000       0.88018500662497168       0.46203858103456785       0.68114531527740041       6.44437188007565137E-002  8.51908061135535355E-003   1.0000000    
  0.95700300000000005       8.87055000000000066E-002  0.99512900000000004       0.83913740543178228       0.44055039728078943       0.66055325128972187       6.93814070855692470E-004  3.60519478945659153E-002   1.0000000    
  0.84857199999999999       0.98846800000000001        0.0000000000000000       0.96273943016454888       0.50552474992024221       0.71473288527947165       0.11755066664009686       7.23290991194752058E-004   1.0000000    
  0.94957800000000003       0.99567799999999995       7.79870000000000008E-002  0.84278491983234638       0.44238241897045077       0.66386600789974104       4.16713903351608253E-002  3.79713110741462844E-003   1.0000000    
  0.90697000000000005       0.99509800000000004       3.35439999999999974E-002  0.90168825873941305       0.47330602667563415       0.69412296734887857       7.11231014065484002E-002  9.14708107909395474E-004   1.0000000    
  0.84857199999999999        0.0000000000000000       0.98846800000000001       0.96569267558222482       0.50700327936561018       0.71468504320805226       1.12548073675285500E-003  0.11767638335650202        1.0000000    
  0.88978599999999997       3.31371000000000027E-002  0.99335499999999999       0.91227709264857426       0.47893588847002916       0.69399835059329229       1.78946610440317662E-003  8.06623459974872281E-002   1.0000000    
  0.80072299999999996       0.48866799999999999       0.84940700000000002        1.0329987398926275       0.54223680510417138       0.74076584404210077       7.92948073838150025E-002  0.13340330717335910        1.0000000    
  0.80228200000000005       0.54482900000000001       0.81490499999999999        1.0364305596474475       0.54403806701946023       0.74158686619254732       8.66735749903938119E-002  0.13151448274923880        1.0000000    
  4.58606999999999973E-002  0.29936299999999999        0.0000000000000000        2.3889694087087041        1.2543054913852327       0.13060212569214918       0.40979389610744621      -3.59772217593717653E-003   1.0000000    
  4.58606999999999973E-002   0.0000000000000000       0.29936299999999999        2.3886984457336391        1.2543017847984936       0.13087077976655898       3.19200720786681855E-003  0.40920327782249544        1.0000000    
  3.21803999999999979E-002  0.17571500000000001       0.18013699999999999        2.4156737925343603        1.2682296397858495       9.31150993978107494E-002  0.24377844204030402       0.25041907891369503        1.0000000    
  2.14686000000000009E-002  0.14374300000000001       0.14769599999999999        2.4342309069715715        1.2781973965629023       6.30028290066980828E-002  0.20481252309647027       0.21297821287182520        1.0000000    
  0.89846800000000004       0.64503600000000005       0.75737699999999997       0.90240514218132939       0.47364226107271024       0.69015516162017121       5.44245424840091724E-002  5.89499356017514006E-002   1.0000000    
  0.88144900000000004       0.66593199999999997       0.73653199999999996       0.93141480724536951       0.48887478341361335       0.70264928486453282       6.37727496855666348E-002  6.52844402533786783E-002   1.0000000    
  0.84957600000000000       0.64389399999999997       0.75018200000000002       0.97981494770786937       0.51427576599854785       0.72381673536223745       8.25249077185546687E-002  9.03943893030554058E-002   1.0000000    
  2.64004000000000009E-002  0.22464700000000001       4.04641000000000028E-002   2.4260458741073756        1.2735142832215296       7.87152113942385240E-002  0.32387218926048761       5.92301262120509403E-002   1.0000000    
   1.0000000000000000       0.97953000000000001       0.20129900000000001       0.79431652503846284       0.41697633920286037       0.63727691953814414       9.03951602957099414E-003  3.57812064725700164E-003   1.0000000    
   1.0000000000000000       0.10116799999999999       0.99486900000000000       0.79524149520088305       0.41750408870736677       0.63688188858395089      -6.62942967367303337E-005  1.28481564355091352E-002   1.0000000    
  0.85563299999999998       5.55276000000000033E-002  0.98796499999999998       0.95802948256407339       0.50296383983479720       0.71284598045890646       5.97911569793168739E-003  0.10714014438895929        1.0000000    
  0.86583699999999997       0.11237500000000000       0.98456699999999997       0.95152455147038428       0.49958108745490304       0.71217283868631243       1.02233307845508783E-002  0.10145722527712341        1.0000000    
  0.85524199999999995       0.98776699999999995       5.79758000000000009E-002  0.96693058549924749       0.50754371492008743       0.71977067595177224       0.11149353434569169       4.92911124930676785E-003   1.0000000    
  0.86165199999999997       0.98442099999999999       0.10851400000000000       0.95486961130698800       0.50124039920569241       0.71399551542947381       0.11072643635379439       1.05167680506764259E-002   1.0000000    
  0.72608099999999998       0.42587500000000000       0.86232200000000003        1.1460334669815193       0.60165742259691557       0.76863487974916900       0.10375898192862699       0.20388951411836415        1.0000000    
  0.78306299999999995       0.44471300000000002       0.86900400000000000        1.0635857417304220       0.55834900641944762       0.74905224639461065       8.20394094103118893E-002  0.15205699530395594        1.0000000    
  0.80407399999999996       0.95776700000000003       0.21046699999999999        1.0361461737221140       0.54395274323669385       0.74209484418296723       0.15332647876620217       3.53231469596726882E-002   1.0000000    
  0.76721799999999996       0.23171000000000000       0.94452300000000000        1.0886247208662301       0.57165839984940103       0.75627468432260148       4.16498464885747266E-002  0.18097517041853808        1.0000000    
  0.74198399999999998       0.96172199999999997       9.22912000000000038E-002   1.1160850923198016       0.58591259697015019       0.76326201173165387       0.21050045844985299       2.02064436107451395E-002   1.0000000    
  0.74934699999999999       0.96807699999999997        0.0000000000000000        1.1099359293371387       0.58284230535977610       0.76124305659334679       0.20474353730986725       1.62774144081313392E-004   1.0000000    
  1.69983000000000009E-002  0.15213900000000000       0.10276800000000000        2.4476208217021003        1.2849239390268836       5.01445296397574347E-002  0.21283844195734067       0.15102332043329508        1.0000000    
  2.63462999999999996E-002  0.19135500000000000       0.12402400000000000        2.4281434596136178        1.2745305466498031       7.79181750624640401E-002  0.27349778308523570       0.17954190197863037        1.0000000    
  2.91715999999999989E-002  0.13311899999999999       0.19942799999999999        2.4209135766532746        1.2710944662451562       8.25557187945160920E-002  0.19128494507562255       0.27695257652452698        1.0000000    
  3.83917000000000008E-002  0.22650699999999999       0.15493199999999999        2.4021141053903046        1.2611467120580357       0.10966908373877361       0.31794954173597184       0.21822275484518949        1.0000000    
  3.19228999999999971E-002   0.0000000000000000       0.25065300000000001        2.4150576888612019        1.2681257020700829       9.50374167417981641E-002  4.61401183805481771E-003  0.35472776689822977        1.0000000    
  3.91673999999999981E-002  0.27272200000000002       4.92263000000000006E-002   2.4017690966225067        1.2609975775652631       0.11248506827386968       0.38116270665038954       6.97077962995599487E-002   1.0000000    
  3.83340000000000000E-002  4.65653999999999998E-002  0.27024100000000001        2.4034074950595841        1.2617495570966373       0.11263685770835710       6.93199370945961901E-002  0.37336165246737718        1.0000000    
  5.51398999999999986E-002  5.25708000000000009E-002  0.32322699999999999        2.3682043026572774        1.2432524871594013       0.15507305412794573       7.99352164122505704E-002  0.43820285565315747        1.0000000    
  0.87327900000000003       0.97931100000000004       0.15776899999999999       0.93339938345126516       0.48999326006703603       0.70463697449440754       9.66283062929381847E-002  1.61322918946452086E-002   1.0000000    
  0.88115100000000002       0.97141299999999997       0.20550399999999999       0.93032689814952441       0.48838951875989239       0.70450782233811815       8.97444002709527205E-002  1.78156054407073508E-002   1.0000000    
  0.83758200000000005       0.18957499999999999       0.96833999999999998       0.99047940004283919       0.52011139906365600       0.72674325866342560       2.14042017937684549E-002  0.12384346670148334        1.0000000    
   1.0000000000000000       0.99486900000000000       0.10116799999999999       0.78753323825993671       0.41338740774653210       0.63432871537790614       9.59817261188860779E-003  2.85347801425835925E-003   1.0000000    
  0.33736699999999997       0.65483400000000003       0.36347000000000002        1.7929360757742518       0.94134675311629190       0.66428490195149159       0.50934116719941958       0.28090026630372672        1.0000000    
  0.35671700000000001       0.75507199999999997       0.12670000000000001        1.7607107624718088       0.92445389054866633       0.68036327066106561       0.56471520151100230       9.60746519530433635E-002   1.0000000    
  0.47235100000000002       0.72825300000000004       0.43730300000000000        1.5678978121423055       0.82311882518879420       0.75717088648386344       0.40889778217429879       0.24218814472901776        1.0000000    
  0.42269299999999999       0.69706199999999996       0.42523100000000003        1.6489102935695790       0.86569853056034718       0.73108397710118456       0.44210807244670841       0.27031706770295810        1.0000000    
  0.35113600000000000       0.11892999999999999       0.75155200000000000        1.7780442140447823       0.93365653416391647       0.66823755651694738       8.71145107746557484E-002  0.56727490009744508        1.0000000    
  0.61283699999999997       0.37035699999999999       0.84435800000000005        1.3214714700101793       0.69378097103253811       0.78942495456113759       0.13317876963414790       0.30475176774312807        1.0000000    
  0.44953599999999999       0.74207999999999996       0.38250099999999998        1.5951441663340007       0.83740921640867771       0.74665027052966648       0.43692148472848447       0.22850273949033728        1.0000000    
  0.45568500000000001       0.47554700000000000       0.69106900000000004        1.5853085586793221       0.83243686159739760       0.75233974057343056       0.28232434335761902       0.39791631858373533        1.0000000    
  0.50860200000000000       8.96084000000000047E-002  0.86631300000000000        1.4912695930409641       0.78301830295551655       0.77082049441686551       4.47900489197092938E-002  0.43567296130264505        1.0000000    
  0.52291699999999997       0.14718100000000001       0.86644699999999997        1.4703390965665109       0.77208020030581659       0.77213886812495902       7.10055126519254787E-002  0.42062056684321009        1.0000000    
  0.27848699999999998       0.52928799999999998       0.44640000000000002        1.9179359758397079        1.0071561853759035       0.58783445894217323       0.46955053670343755       0.39896419943890804        1.0000000    
  0.26013799999999998       0.54120500000000005       0.39962700000000001        1.9523718170315487        1.0252330726541627       0.56428276251173126       0.50448250260454963       0.37107680333593251        1.0000000    
  0.51745600000000003       0.74934400000000001       0.45346999999999998        1.4797785738838389       0.77683272310617979       0.77384161008456009       0.36804799821974887       0.22062643964235149        1.0000000    
  0.26725800000000000       0.48486099999999999       0.47749300000000000        1.9363565577373307        1.0169183058852163       0.57521565109885064       0.43893843104187424       0.43849893529049377        1.0000000    
  0.28303600000000001       0.45671699999999998       0.52666100000000005        1.9077854047649765        1.0019176853624379       0.59964124447591616       0.40497864356160551       0.46589468409263796        1.0000000    
  0.89227400000000001       0.73027100000000000       0.67461000000000004       0.91130067006110516       0.47825823590833783       0.69339264035830217       5.93242304315253419E-002  5.47280725375991414E-002   1.0000000    
  0.93165600000000004       0.71973200000000004       0.69088000000000005       0.86706871528811613       0.45504943131159720       0.67409384665840788       3.78634994033749950E-002  3.41357327934407942E-002   1.0000000    
  0.39657900000000001       0.33258900000000002       0.72475299999999998        1.6875412015436337       0.88597873541759742       0.71145265875177011       0.22433322619048543       0.49228937715225807        1.0000000    
  0.61128000000000005       0.86517200000000005       0.31681700000000002        1.3253550204865359       0.69567716435304927       0.78746022127339077       0.32193264400432137       0.11563066288565232        1.0000000    
  0.37764700000000001       0.62143300000000001       0.47591899999999998        1.7282757041004020       0.90750099405133133       0.69499876154092999       0.44574285489131343       0.33935462312435855        1.0000000    
  0.40555799999999997       0.18754799999999999       0.78196200000000005        1.6757831374117917       0.87984608701949851       0.71875990818370583       0.12496932978707143       0.51414830376167353        1.0000000    
  0.38961600000000002       0.13460200000000000       0.78058499999999997        1.7046023915020507       0.89509381610706185       0.70398017972189197       9.31991988235857521E-002  0.53592946526890739        1.0000000    
  0.75566500000000003       0.63768300000000000       0.73052099999999998        1.1000331339202631       0.57739863606777930       0.76126643698136409       0.12867731118164283       0.14592184485471169        1.0000000    
  0.47977900000000001       0.13927600000000001       0.84259799999999996        1.5389045878173213       0.80808032478306924       0.75912937153215498       7.62585252524469875E-002  0.45845870834613006        1.0000000    
  0.69919299999999995       0.63083000000000000       0.71524100000000002        1.1809185062676597       0.61989553539991804       0.77741465598509507       0.16436995523653850       0.18479853149824993        1.0000000    
  0.61032699999999995       0.84544299999999994       0.36521300000000001        1.3319116499793444       0.69910516789936794       0.78789433377590767       0.31650592391018850       0.13205429556237513        1.0000000    
  0.54488099999999995       0.78457600000000005       0.42107800000000001        1.4375978612655593       0.75465074081385364       0.78202522584816048       0.35726378185295121       0.18905034982638641        1.0000000    
  0.55199900000000002       0.11271000000000000       0.88690000000000002        1.4231345063254983       0.74728792865095828       0.77932806633549323       4.88991265284360876E-002  0.39581590650494064        1.0000000    
  0.87612599999999996       0.77842599999999995       0.61539299999999997       0.93293016824947483       0.48962847053585346       0.70394160690847440       7.50398061787159731E-002  6.27054436836927687E-002   1.0000000    
  0.54124300000000003       0.29205199999999998       0.83919400000000000        1.4271647839403865       0.74932209022645357       0.78122561874138519       0.13047050473356878       0.37970045381211315        1.0000000    
  0.56160200000000005       0.35284399999999999       0.82662500000000005        1.4041773339483294       0.73721874684969901       0.78491708207236588       0.14888843557801157       0.35470421987438722        1.0000000    
  0.41004099999999999       0.77630600000000005       0.22203000000000001        1.6644032082412268       0.87379230925693352       0.72618537464724220       0.51187486536071258       0.14614762431595590        1.0000000    
  0.64911799999999997       0.86596600000000001       0.35634900000000003        1.2665414237647112       0.66478318923715529       0.78456982557910793       0.28173188166390778       0.11284360963422092        1.0000000    
  0.87737399999999999       0.26904800000000001       0.95528800000000003       0.93136575179688041       0.48908031932099605       0.70205466506319725       2.39819224146349125E-002  8.83302089946133434E-002   1.0000000    
  0.75220399999999998       0.81125100000000006       0.52959400000000001        1.0989863412970571       0.57684108044341031       0.75783134222833004       0.16547716590442643       0.10588086358977822        1.0000000    
  0.74188299999999996       0.72935200000000000       0.63357799999999997        1.1160413783895184       0.58584067827863240       0.75864315392118442       0.16021699263282735       0.14070749095036800        1.0000000    
  0.69537199999999999       0.72132700000000005       0.62200400000000000        1.1849563897023130       0.62204931552707687       0.77176553017989935       0.19340077192368957       0.16948425151767638        1.0000000    
  0.63618100000000000       0.80993000000000004       0.46005400000000002        1.2798303352155231       0.67181115663214763       0.78452727224134011       0.27093136276653934       0.15462760249189994        1.0000000    
  0.76728700000000005       0.78357800000000000       0.57606400000000002        1.0777520466218353       0.56568843785406875       0.75159444836313805       0.15206031310887677       0.11224905199790776        1.0000000    
  0.56237800000000004       0.76634899999999995       0.47031499999999998        1.4012120400590651       0.73559390298339244       0.78074316781851760       0.32995642493788979       0.19934617322862105        1.0000000    
  0.63425200000000004       0.55528599999999995       0.74691799999999997        1.2879421295085587       0.67603177982806306       0.78828998538712713       0.18731157731140843       0.24983739877291750        1.0000000    
  0.43384800000000001       0.13961200000000001       0.81239200000000000        1.6200121328323960       0.85066328533091673       0.73730873027617638       8.54535616560590794E-002  0.49842617243366089        1.0000000    
  0.41450199999999998       9.76255000000000039E-002  0.80477399999999999        1.6529456359266088       0.86791807778092445       0.72007635117787083       6.30968436270997191E-002  0.51962607061069932        1.0000000    
  0.91923800000000000       0.86168199999999995       0.50097999999999998       0.88316859681998039       0.46347118702539442       0.68146732725029358       5.58343277934395740E-002  3.24359514845151201E-002   1.0000000    
  0.45978500000000000       0.42300199999999999       0.72748699999999999        1.5759986954548189       0.82756633732549367       0.75436299637555093       0.24735948438976013       0.41878957329788996        1.0000000    
  0.57911299999999999       0.74699099999999996       0.51464500000000002        1.3697433760117828       0.71906763598636336       0.78211908120001183       0.30454872605189515       0.21114902282241546        1.0000000    
  0.68179999999999996       0.82257100000000005       0.47130300000000003        1.2063779069129985       0.63323254424929931       0.77704068999155784       0.23244262542367794       0.13323774552550835        1.0000000    
  0.57319100000000001       0.40574800000000000       0.80820899999999996        1.3805323279489143       0.72472695518912322       0.78494953250526156       0.16586607818550114       0.33336689471692471        1.0000000    
  0.53902499999999998       0.44094000000000000       0.77011300000000005        1.4408772681261248       0.75658504051294417       0.78228445416340964       0.20456573272021497       0.35546584709344475        1.0000000    
  0.69993000000000005       0.80371999999999999       0.51380199999999998        1.1736863614022559       0.61607927377947591       0.77205691987975622       0.20673092660652853       0.13147358148021829        1.0000000    
  0.46955599999999997       0.52957699999999996       0.66195000000000004        1.5645262051436575       0.82146385040331460       0.75831728488533723       0.29870738582665257       0.37031009555894046        1.0000000    
  0.44795400000000002       0.55416600000000005       0.62301300000000004        1.5999460282081559       0.84014342332409897       0.74581188523769304       0.33459677074461908       0.37402987638891116        1.0000000    
  0.49895699999999998       0.76737900000000003       0.40010699999999999        1.5179520845087038       0.79687507201114549       0.76883249868878556       0.39797581581439756       0.20487640089448778        1.0000000    
  0.68156200000000000       0.66021500000000000       0.68023100000000003        1.2093785217126132       0.63485871566731422       0.77758680733530827       0.18652339995985770       0.19377274613624779        1.0000000    
  0.62268699999999999       0.22799000000000000       0.89758300000000002        1.3057778571452479       0.68564018987537623       0.78530371979645208       7.99930708082715325E-002  0.31418011686877928        1.0000000    
  0.59396199999999999       0.72516000000000003       0.55612600000000001        1.3514310889815708       0.70944678220922319       0.78767312208924189       0.28131834027084812       0.21601078381895725        1.0000000    
  0.56100000000000005       0.83674400000000004       0.32732000000000000        1.4062818708025095       0.73816907641222873       0.78503657191470555       0.36195402337521787       0.13968717705831760        1.0000000    
  0.62404000000000004       0.75927000000000000       0.53119000000000005        1.3038946780937080       0.68447304530723718       0.78642149352113044       0.26663755102133152       0.18554854405403387        1.0000000    
  0.57067900000000005       0.48155500000000001       0.76405999999999996        1.3947549818198715       0.73230704591717177       0.78602963477382704       0.20307636114331881       0.32299509539330573        1.0000000    
  0.49493900000000002       0.45833099999999999       0.73133199999999998        1.5134728027561530       0.79471189639888340       0.76996155811219147       0.24239103622675753       0.37960072977573778        1.0000000    
  0.71804000000000001       0.59355899999999995       0.75378100000000003        1.1537908141586344       0.60560174836223080       0.77237267776220875       0.14705771174370053       0.17887706124462391        1.0000000    
  0.51568300000000000       0.62575999999999998       0.61144299999999996        1.4814954184848907       0.77786437948131915       0.77383610273054571       0.30840598664334690       0.30355377278453188        1.0000000    
  0.51309700000000003       0.69689999999999996       0.52655099999999999        1.4894980152887127       0.78200498316948264       0.77438307118073280       0.34621525737593328       0.26274209989904063        1.0000000    
  0.96396999999999999       0.73976900000000001       0.67189600000000005       0.82467836318299104       0.43278504808397827       0.65247452955918672       2.33907945220055112E-002  1.87757586690377627E-002   1.0000000    
  0.70947800000000005       0.69578700000000004       0.65686900000000004        1.1642732591625484       0.61108584125703236       0.76941817074760321       0.17884100716759338       0.17057853670831485        1.0000000    
  0.49877300000000002       0.83709599999999995       0.21918399999999999        1.5143356334910016       0.79503597563706774       0.76968230952044281       0.43573069912218360       0.11369289443940164        1.0000000    
  0.52689200000000003       0.83789599999999997       0.27221099999999998        1.4622245885304026       0.76756916512467288       0.77702796251453721       0.40161425091685332       0.13034536800132085        1.0000000    
  0.88166100000000003       0.34092400000000000       0.93261300000000003       0.92657657504391044       0.48649139347610842       0.70018471245551162       3.09531914185533219E-002  8.57965135700158449E-002   1.0000000    
  0.73012200000000005       0.75400999999999996       0.59886200000000001        1.1344058367269862       0.59542614236874847       0.76493928059078575       0.17686261491860977       0.14082402990103218        1.0000000    
  0.68193499999999996       0.74593699999999996       0.58516000000000001        1.2103033038965196       0.63528336391049245       0.77918289336696667       0.21416629812677609       0.16659467955850557        1.0000000    
  0.59037099999999998       0.79849999999999999       0.44113700000000000        1.3574423411312846       0.71255363671839578       0.78601522689569181       0.31571591602837906       0.17279282552761438        1.0000000    
  0.48223100000000002       0.62632200000000005       0.58278300000000005        1.5377811372511949       0.80743045230879906       0.76159376889716979       0.33572483031129680       0.31685219291897010        1.0000000    
  0.65341499999999997       0.62467700000000004       0.69975600000000004        1.2533642045487901       0.65798433585845728       0.78504216504662516       0.19739602040938678       0.21761956991627843        1.0000000    
  0.63849699999999998       0.65318299999999996       0.66533200000000003        1.2822126967762637       0.67309000632927019       0.78538289664178307       0.21896912568121835       0.22383287934966137        1.0000000    
  0.77739800000000003       0.75970199999999999       0.61098300000000005        1.0669297613856537       0.55996939758010555       0.74914340649203559       0.14279957125332959       0.11447094007075687        1.0000000    
  0.58323100000000005       0.66859400000000002       0.61586099999999999        1.3734139181384140       0.72101956754149943       0.78675690062389736       0.26752682271658024       0.25043490603463747        1.0000000    
  0.55018900000000004       0.59031400000000001       0.67022300000000001        1.4258470245487562       0.74857039391378488       0.78417077320786888       0.26409775090114562       0.29699470737454237        1.0000000    
  0.80266899999999997       0.71555899999999995       0.67010099999999995        1.0267011274770088       0.53885624048711755       0.73620854850408579       0.11281599194679455       0.10656017731359942        1.0000000    
  0.64871699999999999       0.71096099999999995       0.60920799999999997        1.2631366040940679       0.66312341017338794       0.78267846599914015       0.22875028297403263       0.19800871438362841        1.0000000    
  0.62313799999999997       0.67836200000000002       0.63071400000000000        1.3042657865340488       0.68458100760933538       0.78470596247344404       0.23827431504072058       0.22520889552800488        1.0000000    
  0.66551700000000003       0.68720499999999995       0.64488000000000001        1.2374078106651978       0.64949810677006559       0.78144079700476698       0.20961811817182521       0.19892725328276295        1.0000000    
  0.59833499999999995       0.64541800000000005       0.64969299999999996        1.3486737152494070       0.70802458052538730       0.78789192408874453       0.24693333918015339       0.25120728082167415        1.0000000    
  0.55376499999999995       0.71326599999999996       0.54048600000000002        1.4187056647843224       0.74481121927255167       0.78349235395782268       0.31302814470052470       0.24067778497808287        1.0000000    
  0.48122799999999999       0.59396400000000005       0.61488399999999999        1.5434878496332940       0.81047096911554384       0.76260181655282244       0.32328532206070704       0.33707582845328415        1.0000000    
  0.48475099999999999       0.56732300000000002       0.64238899999999999        1.5427807251207661       0.80996880962826556       0.76373703227456002       0.30922527304569153       0.34949005046413534        1.0000000    
  0.51082899999999998       0.55802499999999999       0.67031399999999997        1.4880417908759116       0.78124080325421874       0.77461599877978815       0.27872191399184937       0.33387285950643386        1.0000000    
  0.51708799999999999       0.59676399999999996       0.64083500000000004        1.4773580071539920       0.77564974766352024       0.77594664635569988       0.29425380072889767       0.31420540561878069        1.0000000    
  0.96625300000000003       0.70426299999999997       0.70913700000000002       0.82738531893648326       0.43422735512599459       0.65469125025226393       2.14759581326272458E-002  1.89412885448499158E-002   1.0000000    
  0.94338999999999995       0.28809400000000002       0.95592699999999997       0.84657145853478444       0.44454970283621043       0.66374468515661800       1.27138279419855907E-002  4.32234098917995552E-002   1.0000000    
  0.60900399999999999       0.70265699999999998       0.59447099999999997        1.3303610412361200       0.69839838006485722       0.78930010190508215       0.25909589170256747       0.22263348245571543        1.0000000    