TITLE = Boundary data
VARIABLES =  "x0" "x1" "x2" "p" "u" "v" "w" "T"
ZONE   T= "ZONE0 1", N=2830, E=5534, F=FEPOINT, ET=TRIANGLE, SOLUTIONTIME=0.00000000000000e+00
+8.88699000000000e-01 +9.90069000000000e-01 +8.58813000000000e-02 +7.42037974407362e+03 +2.58691735187041e+03 +5.09370180827300e+02 +3.16751022586920e+01 +2.60373948224730e+03
+9.16197000000000e-01 +9.87996000000000e-01 +1.29772000000000e-01 +6.26075716174717e+03 +2.64129960891250e+03 +4.29269607717343e+02 +6.18973069405985e+01 +2.48750477336883e+03
+9.57003000000000e-01 +8.87055000000000e-02 +9.95129000000000e-01 +5.93007877552790e+03 +2.65807919495547e+03 +5.59250195079562e+01 +4.09645187392212e+02 +2.45751143247370e+03
+8.48572000000000e-01 +9.88468000000000e-01 +0.00000000000000e+00 +7.87044461405128e+03 +2.54342752366335e+03 +5.93737207403996e+02 -2.00848704796708e+01 +2.65556519713572e+03
+9.49578000000000e-01 +9.95678000000000e-01 +7.79870000000000e-02 +5.87588354322315e+03 +2.65164783000773e+03 +4.28125307928331e+02 +1.96001580733624e+01 +2.45712004839083e+03
+9.06970000000000e-01 +9.95098000000000e-01 +3.35440000000000e-02 +7.21178176084399e+03 +2.58725428241575e+03 +5.23868607776579e+02 +1.09901897281754e+01 +2.58387582454986e+03
+8.48572000000000e-01 +0.00000000000000e+00 +9.88468000000000e-01 +8.79611729875413e+03 +2.50414975798496e+03 +2.93686889355254e+01 +6.24858065989701e+02 +2.74533791363701e+03
+8.89786000000000e-01 +3.31371000000000e-02 +9.93355000000000e-01 +7.38746594497910e+03 +2.58491597941057e+03 +2.66365590555996e+01 +5.03184007229814e+02 +2.60766717929618e+03
+8.00723000000000e-01 +4.88668000000000e-01 +8.49407000000000e-01 +1.09969407927068e+04 +2.43262712489264e+03 +3.54363546593230e+02 +5.97409156203408e+02 +2.87813528757212e+03
+8.02282000000000e-01 +5.44829000000000e-01 +8.14905000000000e-01 +1.06902774892641e+04 +2.44829921357110e+03 +3.71455851724294e+02 +5.88465151390840e+02 +2.84258522472028e+03
+4.58607000000000e-02 +2.99363000000000e-01 +0.00000000000000e+00 +1.13288300569243e+05 +2.64877443320384e+02 +5.67135850640509e+02 -6.16127337125604e+00 +6.06679153163776e+03
+4.58607000000000e-02 +0.00000000000000e+00 +2.99363000000000e-01 +1.09588763293458e+05 +1.95569065305154e+02 +4.46508958900855e+01 +5.60634836807195e+02 +6.06150367623965e+03
+3.21804000000000e-02 +1.75715000000000e-01 +1.80137000000000e-01 +1.15195162175163e+05 +1.92010185731848e+02 +3.46232548991535e+02 +3.36211954892476e+02 +6.12842262663181e+03
+2.14686000000000e-02 +1.43743000000000e-01 +1.47696000000000e-01 +1.15778623629297e+05 +1.23712858959922e+02 +2.73057286167977e+02 +3.37702054032959e+02 +6.14007522631552e+03
+8.98468000000000e-01 +6.45036000000000e-01 +7.57377000000000e-01 +6.83596300740468e+03 +2.62016690419037e+03 +3.34411140925756e+02 +3.59319765944426e+02 +2.52579160160934e+03
+8.81449000000000e-01 +6.65932000000000e-01 +7.36532000000000e-01 +7.77823078136618e+03 +2.58285543324592e+03 +3.64908208086583e+02 +3.73871516159010e+02 +2.61869270127923e+03
+8.49576000000000e-01 +6.43894000000000e-01 +7.50182000000000e-01 +8.94076926346272e+03 +2.51339677778881e+03 +4.25714204660133e+02 +4.87739794424149e+02 +2.71336813964424e+03
+2.64004000000000e-02 +2.24647000000000e-01 +4.04641000000000e-02 +1.15213361019417e+05 +1.30643024811463e+02 +4.60151694318439e+02 +1.09590949241266e+02 +6.09465791886172e+03
+1.00000000000000e+00 +9.79530000000000e-01 +2.01299000000000e-01 +4.97142446209749e+03 +2.70967113571648e+03 +2.95355729432777e+02 +7.69498205465563e+01 +2.34227735732134e+03
+1.00000000000000e+00 +1.01168000000000e-01 +9.94869000000000e-01 +5.13060334588938e+03 +2.70119562748860e+03 +4.29300805874263e+01 +3.48975997938248e+02 +2.36054326190808e+03
+8.55633000000000e-01 +5.55276000000000e-02 +9.87965000000000e-01 +8.42730296850781e+03 +2.54559771368899e+03 +2.71367655476759e+01 +5.28649087769958e+02 +2.69886843224686e+03
+8.65837000000000e-01 +1.12375000000000e-01 +9.84567000000000e-01 +9.07924742467173e+03 +2.51690340666326e+03 +6.51722190803690e+01 +5.73227937866227e+02 +2.75323831244282e+03
+8.55242000000000e-01 +9.87767000000000e-01 +5.79758000000000e-02 +8.65971864590124e+03 +2.52877171185902e+03 +5.77651284386679e+02 +7.81871504122880e+00 +2.71353380874038e+03
+8.61652000000000e-01 +9.84421000000000e-01 +1.08514000000000e-01 +8.64023826297300e+03 +2.51610632478895e+03 +6.11052756509049e+02 +5.03015343414723e+01 +2.71518218545080e+03
+7.26081000000000e-01 +4.25875000000000e-01 +8.62322000000000e-01 +1.31921469767837e+04 +2.32211332580260e+03 +3.66971978041534e+02 +7.54399960169713e+02 +3.04621643278324e+03
+7.83063000000000e-01 +4.44713000000000e-01 +8.69004000000000e-01 +1.14771745699490e+04 +2.41714706601735e+03 +3.39257567315306e+02 +6.23523056797531e+02 +2.92104512631346e+03
+8.04074000000000e-01 +9.57767000000000e-01 +2.10467000000000e-01 +1.03107758172872e+04 +2.45765618355708e+03 +6.52464120733577e+02 +1.56737348641466e+02 +2.84121654064272e+03
+7.67218000000000e-01 +2.31710000000000e-01 +9.44523000000000e-01 +1.24342417683704e+04 +2.38923027742422e+03 +1.70467284743674e+02 +6.98862313317042e+02 +2.97741614732239e+03
+7.41984000000000e-01 +9.61722000000000e-01 +9.22912000000000e-02 +1.32603360412793e+04 +2.33208914285441e+03 +7.89994032550103e+02 +5.88842024202999e+01 +3.05853680361380e+03
+7.49347000000000e-01 +9.68077000000000e-01 +0.00000000000000e+00 +1.29547270548196e+04 +2.35392673442750e+03 +7.75337664828180e+02 -8.85012424032605e+00 +3.02380932263641e+03
+1.69983000000000e-02 +1.52139000000000e-01 +1.02768000000000e-01 +1.19649601920766e+05 +1.22365983227198e+02 +3.17107669148722e+02 +2.53606325021657e+02 +6.18549431601701e+03
+2.63463000000000e-02 +1.91355000000000e-01 +1.24024000000000e-01 +1.16001924964118e+05 +1.52819551947124e+02 +4.06683915524364e+02 +2.58847791804485e+02 +6.13521545999790e+03
+2.91716000000000e-02 +1.33119000000000e-01 +1.99428000000000e-01 +1.15042214301268e+05 +1.43915914891659e+02 +2.41150368274895e+02 +3.84561871031963e+02 +6.14373667597969e+03
+3.83917000000000e-02 +2.26507000000000e-01 +1.54932000000000e-01 +1.11753133067338e+05 +1.87050336268274e+02 +4.64398712564822e+02 +2.98984479879213e+02 +6.07506784119654e+03
+3.19229000000000e-02 +0.00000000000000e+00 +2.50653000000000e-01 +1.12620872949226e+05 +1.45987597169179e+02 +3.36764439909694e+01 +4.84146629437950e+02 +6.10334984100806e+03
+3.91674000000000e-02 +2.72722000000000e-01 +4.92263000000000e-02 +1.14024093544291e+05 +1.89270541738017e+02 +5.13590223245440e+02 +1.49312512350662e+02 +6.08757887611404e+03
+3.83340000000000e-02 +4.65654000000000e-02 +2.70241000000000e-01 +1.11347401795426e+05 +1.97954662266989e+02 +8.82664048958896e+01 +5.21892253135165e+02 +6.09444122968001e+03
+5.51399000000000e-02 +5.25708000000000e-02 +3.23227000000000e-01 +1.07799537649941e+05 +2.45905957385366e+02 +1.10709233320663e+02 +6.17071057729444e+02 +6.04881694479557e+03
+8.73279000000000e-01 +9.79311000000000e-01 +1.57769000000000e-01 +7.75174585817815e+03 +2.56345996408410e+03 +5.51332111868074e+02 +9.44226337533330e+01 +2.63479422652900e+03
+8.81151000000000e-01 +9.71413000000000e-01 +2.05504000000000e-01 +7.66454831626294e+03 +2.56054757487786e+03 +5.64095074470829e+02 +1.41178077677479e+02 +2.63031027273108e+03
+8.37582000000000e-01 +1.89575000000000e-01 +9.68340000000000e-01 +9.28949595070315e+03 +2.50214881499164e+03 +1.17545655931949e+02 +6.13709488460361e+02 +2.75300201605084e+03
+1.00000000000000e+00 +9.94869000000000e-01 +1.01168000000000e-01 +5.12431266469609e+03 +2.69608673541156e+03 +3.53909225082892e+02 +1.88816942726559e+01 +2.36374548222136e+03
+3.37367000000000e-01 +6.54834000000000e-01 +3.63470000000000e-01 +4.93117656991678e+04 +1.33070527077093e+03 +1.03101092155321e+03 +5.62915299785326e+02 +4.58224140619148e+03
+3.56717000000000e-01 +7.55072000000000e-01 +1.26700000000000e-01 +4.87326373733077e+04 +1.33031588749881e+03 +1.12250353639091e+03 +2.24762531244204e+02 +4.62742507800396e+03
+4.72351000000000e-01 +7.28253000000000e-01 +4.37303000000000e-01 +3.48523507976207e+04 +1.67739865881617e+03 +9.77626083589171e+02 +5.64857960999112e+02 +4.08561020275420e+03
+4.22693000000000e-01 +6.97062000000000e-01 +4.25231000000000e-01 +3.97445916183720e+04 +1.54846809154227e+03 +9.88779278545279e+02 +5.86046440432371e+02 +4.27538658319447e+03
+3.51136000000000e-01 +1.18930000000000e-01 +7.51552000000000e-01 +4.99372538472086e+04 +1.31336945815806e+03 +1.79324214272102e+02 +1.14892064755034e+03 +4.62168772630421e+03
+6.12837000000000e-01 +3.70357000000000e-01 +8.44358000000000e-01 +2.11612324521751e+04 +2.06622736074026e+03 +3.77909082322515e+02 +9.16355531847396e+02 +3.49307787080614e+03
+4.49536000000000e-01 +7.42080000000000e-01 +3.82501000000000e-01 +3.67241905736222e+04 +1.63675281492933e+03 +1.00127894426396e+03 +5.31539895709139e+02 +4.15543252590888e+03
+4.55685000000000e-01 +4.75547000000000e-01 +6.91069000000000e-01 +3.60672842832597e+04 +1.69194874679066e+03 +6.26238596518929e+02 +9.17415941543728e+02 +4.08507220359747e+03
+5.08602000000000e-01 +8.96084000000000e-02 +8.66313000000000e-01 +3.12243095651345e+04 +1.77775731896196e+03 +1.17776543151032e+02 +1.09289456859408e+03 +3.93749090974702e+03
+5.22917000000000e-01 +1.47181000000000e-01 +8.66447000000000e-01 +2.91054787285189e+04 +1.81172276893991e+03 +1.68329554579248e+02 +1.08765450945185e+03 +3.89169008325793e+03
+2.78487000000000e-01 +5.29288000000000e-01 +4.46400000000000e-01 +6.05414303565151e+04 +1.08082737672679e+03 +8.95247181630919e+02 +7.32427797308868e+02 +4.91615215297492e+03
+2.60138000000000e-01 +5.41205000000000e-01 +3.99627000000000e-01 +6.21158577699084e+04 +1.03106270877821e+03 +9.27719038054100e+02 +6.92682692245318e+02 +4.98688910013665e+03
+5.17456000000000e-01 +7.49344000000000e-01 +4.53470000000000e-01 +2.81696751589031e+04 +1.85415867413541e+03 +9.25390011998684e+02 +5.51877279562040e+02 +3.83274955879520e+03
+2.67258000000000e-01 +4.84861000000000e-01 +4.77493000000000e-01 +6.21037760745546e+04 +1.04812065727076e+03 +8.36319424193933e+02 +7.92009281369448e+02 +4.97189051385815e+03
+2.83036000000000e-01 +4.56717000000000e-01 +5.26661000000000e-01 +6.16282816687642e+04 +1.10693067944660e+03 +7.64977887757101e+02 +8.39747636279428e+02 +4.93275879607551e+03
+8.92274000000000e-01 +7.30271000000000e-01 +6.74610000000000e-01 +7.36466705292708e+03 +2.58597873769524e+03 +3.61657648343421e+02 +3.20877387652971e+02 +2.62095526958913e+03
+9.31656000000000e-01 +7.19732000000000e-01 +6.90880000000000e-01 +6.55146288493420e+03 +2.61926293154340e+03 +3.55562528061593e+02 +2.74510872049440e+02 +2.53861138206291e+03
+3.96579000000000e-01 +3.32589000000000e-01 +7.24753000000000e-01 +4.23922234277243e+04 +1.49007816778547e+03 +4.61305836342691e+02 +1.08847933621227e+03 +4.33327571605791e+03
+6.11280000000000e-01 +8.65172000000000e-01 +3.16817000000000e-01 +2.16656389703093e+04 +2.04191478350781e+03 +9.28366094480946e+02 +3.36826607625450e+02 +3.53301911170309e+03
+3.77647000000000e-01 +6.21433000000000e-01 +4.75919000000000e-01 +4.68534342339119e+04 +1.38790033823943e+03 +9.23869599943288e+02 +7.01913035434841e+02 +4.51044568275801e+03
+4.05558000000000e-01 +1.87548000000000e-01 +7.81962000000000e-01 +4.18602305579751e+04 +1.51504100534605e+03 +2.41687848691873e+02 +1.11892523916143e+03 +4.35139660419522e+03
+3.89616000000000e-01 +1.34602000000000e-01 +7.80585000000000e-01 +4.29933184050232e+04 +1.45864056788854e+03 +1.93116052283603e+02 +1.14321222356167e+03 +4.41885176213929e+03
+7.55665000000000e-01 +6.37683000000000e-01 +7.30521000000000e-01 +1.18865415239182e+04 +2.40295944869133e+03 +4.92140171471412e+02 +5.22570373341996e+02 +2.93910078156452e+03
+4.79779000000000e-01 +1.39276000000000e-01 +8.42598000000000e-01 +3.38377517319296e+04 +1.71251248893657e+03 +1.77997240624520e+02 +1.09249914019948e+03 +4.06151415954487e+03
+6.99193000000000e-01 +6.30830000000000e-01 +7.15241000000000e-01 +1.57273360073913e+04 +2.25190691231768e+03 +5.85792893127467e+02 +6.30010346690568e+02 +3.18656674066742e+03
+6.10327000000000e-01 +8.45443000000000e-01 +3.65213000000000e-01 +2.14694702668740e+04 +2.06531171118088e+03 +8.74214715583294e+02 +3.99960932475014e+02 +3.51141773314319e+03
+5.44881000000000e-01 +7.84576000000000e-01 +4.21078000000000e-01 +2.78405398882306e+04 +1.88807035405290e+03 +9.25449565818258e+02 +5.07599137642067e+02 +3.78685952672095e+03
+5.51999000000000e-01 +1.12710000000000e-01 +8.86900000000000e-01 +2.67173269004177e+04 +1.88095195706287e+03 +1.17442728331094e+02 +1.07898683761791e+03 +3.76780754439793e+03
+8.76126000000000e-01 +7.78426000000000e-01 +6.15393000000000e-01 +8.12066486708774e+03 +2.52799595423788e+03 +4.85235132152985e+02 +3.95090487909062e+02 +2.69487167690021e+03
+5.41243000000000e-01 +2.92052000000000e-01 +8.39194000000000e-01 +2.59797574302646e+04 +1.91961950128977e+03 +3.19653435427021e+02 +9.71237614037148e+02 +3.75336892512873e+03
+5.61602000000000e-01 +3.52844000000000e-01 +8.26625000000000e-01 +2.63653182224078e+04 +1.90962695214062e+03 +3.95294987196728e+02 +9.82131611306479e+02 +3.73893823908803e+03
+4.10041000000000e-01 +7.76306000000000e-01 +2.22030000000000e-01 +4.14273113683934e+04 +1.52258662294808e+03 +1.10407795601741e+03 +3.42351241253911e+02 +4.31393733106213e+03
+6.49118000000000e-01 +8.65966000000000e-01 +3.56349000000000e-01 +1.92035398933797e+04 +2.13361663846385e+03 +8.34890017295378e+02 +3.79572503741723e+02 +3.40076848025712e+03
+8.77374000000000e-01 +2.69048000000000e-01 +9.55288000000000e-01 +7.58332449661032e+03 +2.58449060230683e+03 +1.09500071423117e+02 +4.96110411681281e+02 +2.60502694655765e+03
+7.52204000000000e-01 +8.11251000000000e-01 +5.29594000000000e-01 +1.30262324803033e+04 +2.33459199568199e+03 +6.41940332814676e+02 +4.17145042755957e+02 +3.07330929816606e+03
+7.41883000000000e-01 +7.29352000000000e-01 +6.33578000000000e-01 +1.31442644505108e+04 +2.31880596972381e+03 +6.30145495293135e+02 +5.25371012309802e+02 +3.07015188179955e+03
+6.95372000000000e-01 +7.21327000000000e-01 +6.22004000000000e-01 +1.49384973225000e+04 +2.25074483282861e+03 +6.84010446111322e+02 +5.76900936147322e+02 +3.17687167286839e+03
+6.36181000000000e-01 +8.09930000000000e-01 +4.60054000000000e-01 +1.92427669798143e+04 +2.13720308095309e+03 +7.96876657930693e+02 +4.83398322076721e+02 +3.40288696383153e+03
+7.67287000000000e-01 +7.83578000000000e-01 +5.76064000000000e-01 +1.15070901922541e+04 +2.37705285996432e+03 +6.05050698023456e+02 +4.73898559526462e+02 +2.97953437660393e+03
+5.62378000000000e-01 +7.66349000000000e-01 +4.70315000000000e-01 +2.66774592530986e+04 +1.89671956785178e+03 +8.93234709773798e+02 +5.42886411850003e+02 +3.77142945383362e+03
+6.34252000000000e-01 +5.55286000000000e-01 +7.46918000000000e-01 +1.97754817665771e+04 +2.12809760491583e+03 +5.75080135368116e+02 +7.53292396478178e+02 +3.39579005535495e+03
+4.33848000000000e-01 +1.39612000000000e-01 +8.12392000000000e-01 +3.84852426750728e+04 +1.59760357404506e+03 +1.83588417893588e+02 +1.10993861355984e+03 +4.23693669415954e+03
+4.14502000000000e-01 +9.76255000000000e-02 +8.04774000000000e-01 +4.06118928866781e+04 +1.53307595497363e+03 +1.40745240914045e+02 +1.14775053097701e+03 +4.30458243012117e+03
+9.19238000000000e-01 +8.61682000000000e-01 +5.00980000000000e-01 +6.99966934025520e+03 +2.59465377793667e+03 +4.39512370754469e+02 +2.74439198452650e+02 +2.58810744952653e+03
+4.59785000000000e-01 +4.23002000000000e-01 +7.27487000000000e-01 +3.53852371149755e+04 +1.69232630331721e+03 +5.61317920789465e+02 +9.72542102101744e+02 +4.07450579289120e+03
+5.79113000000000e-01 +7.46991000000000e-01 +5.14645000000000e-01 +2.31019912376722e+04 +1.96443244897043e+03 +8.49062836463735e+02 +5.92876659464989e+02 +3.64694165315868e+03
+6.81800000000000e-01 +8.22571000000000e-01 +4.71303000000000e-01 +1.70893549529593e+04 +2.20120486542588e+03 +7.54700998147409e+02 +4.62313893728666e+02 +3.29545047747053e+03
+5.73191000000000e-01 +4.05748000000000e-01 +8.08209000000000e-01 +2.41095182325663e+04 +1.98251104001245e+03 +4.47240433591135e+02 +9.24831137339931e+02 +3.61550505567911e+03
+5.39025000000000e-01 +4.40940000000000e-01 +7.70113000000000e-01 +2.79415200375949e+04 +1.87725279258404e+03 +5.30397899015089e+02 +9.35278671475975e+02 +3.77667444523943e+03
+6.99930000000000e-01 +8.03720000000000e-01 +5.13802000000000e-01 +1.48123076396323e+04 +2.27120828651006e+03 +6.89319266617407e+02 +4.54691902353260e+02 +3.18484086315733e+03
+4.69556000000000e-01 +5.29577000000000e-01 +6.61950000000000e-01 +3.54195296507163e+04 +1.70067600927448e+03 +6.97563642143746e+02 +8.77132744943823e+02 +4.06668260799516e+03
+4.47954000000000e-01 +5.54166000000000e-01 +6.23013000000000e-01 +3.67853236526818e+04 +1.62433749156083e+03 +8.03435696106743e+02 +8.33454998648527e+02 +4.14259578800564e+03
+4.98957000000000e-01 +7.67379000000000e-01 +4.00107000000000e-01 +3.11983895912010e+04 +1.77509488258110e+03 +9.82739372941797e+02 +5.20777395821746e+02 +3.93671153147911e+03
+6.81562000000000e-01 +6.60215000000000e-01 +6.80231000000000e-01 +1.61888539727266e+04 +2.21948791730889e+03 +6.37810182612349e+02 +6.32906697082369e+02 +3.23771158650131e+03
+6.22687000000000e-01 +2.27990000000000e-01 +8.97583000000000e-01 +2.14405560938745e+04 +2.06410875466966e+03 +2.29870233194548e+02 +9.53824214475179e+02 +3.50151084350969e+03
+5.93962000000000e-01 +7.25160000000000e-01 +5.56126000000000e-01 +2.30292022517480e+04 +1.99158528502759e+03 +8.25724920564376e+02 +6.03423344260052e+02 +3.61508969851753e+03
+5.61000000000000e-01 +8.36744000000000e-01 +3.27320000000000e-01 +2.60009881504690e+04 +1.92629098769368e+03 +9.49383288719707e+02 +3.86781860308439e+02 +3.72854606164574e+03
+6.24040000000000e-01 +7.59270000000000e-01 +5.31190000000000e-01 +2.10294646206680e+04 +2.05293052818361e+03 +8.05115093297064e+02 +5.60170841666931e+02 +3.52601000980591e+03
+5.70679000000000e-01 +4.81555000000000e-01 +7.64060000000000e-01 +2.47186877295156e+04 +1.96373692837924e+03 +5.54824043118296e+02 +8.72254207478611e+02 +3.64120963602934e+03
+4.94939000000000e-01 +4.58331000000000e-01 +7.31332000000000e-01 +3.21569037253530e+04 +1.77910620866955e+03 +5.82518599541172e+02 +9.30858708704726e+02 +3.93923282044902e+03
+7.18040000000000e-01 +5.93559000000000e-01 +7.53781000000000e-01 +1.46126505627127e+04 +2.27207308915139e+03 +5.49866746282181e+02 +6.91495161549266e+02 +3.12006678615888e+03
+5.15683000000000e-01 +6.25760000000000e-01 +6.11443000000000e-01 +2.98087270826969e+04 +1.80756764715662e+03 +8.22239557640163e+02 +7.23427880044929e+02 +3.88608175521932e+03
+5.13097000000000e-01 +6.96900000000000e-01 +5.26551000000000e-01 +2.85538986191119e+04 +1.81423494757205e+03 +8.81531679053982e+02 +6.27248738832634e+02 +3.88315439646444e+03
+9.63970000000000e-01 +7.39769000000000e-01 +6.71896000000000e-01 +5.51045749671685e+03 +2.66476003905508e+03 +3.10184175280946e+02 +2.22302984768846e+02 +2.43535339443131e+03
+7.09478000000000e-01 +6.95787000000000e-01 +6.56869000000000e-01 +1.46025271253384e+04 +2.24320761058532e+03 +6.76524966753527e+02 +6.12192774639453e+02 +3.16112062531453e+03
+4.98773000000000e-01 +8.37096000000000e-01 +2.19184000000000e-01 +3.13324300268531e+04 +1.77059719943085e+03 +1.04954154677159e+03 +3.00731507768018e+02 +3.95767271485441e+03
+5.26892000000000e-01 +8.37896000000000e-01 +2.72211000000000e-01 +2.82988350422806e+04 +1.85239900726974e+03 +1.01780759224535e+03 +3.38803616630782e+02 +3.83189556656581e+03
+8.81661000000000e-01 +3.40924000000000e-01 +9.32613000000000e-01 +8.09051786218081e+03 +2.55191108439840e+03 +1.87724501876053e+02 +5.16873189973345e+02 +2.66169679365398e+03
+7.30122000000000e-01 +7.54010000000000e-01 +5.98862000000000e-01 +1.36465140057017e+04 +2.30605170931807e+03 +6.49154052367435e+02 +5.02445188350225e+02 +3.10558334198527e+03
+6.81935000000000e-01 +7.45937000000000e-01 +5.85160000000000e-01 +1.62341848836715e+04 +2.21060763890219e+03 +7.20338827626848e+02 +5.39669560094501e+02 +3.26396197832040e+03
+5.90371000000000e-01 +7.98500000000000e-01 +4.41137000000000e-01 +2.35389222737289e+04 +1.99532132972307e+03 +8.91650666823952e+02 +4.93375703140346e+02 +3.60997691221939e+03
+4.82231000000000e-01 +6.26322000000000e-01 +5.82783000000000e-01 +3.29269478336191e+04 +1.73647080974815e+03 +8.30926172673782e+02 +7.22666401371161e+02 +4.01488409266302e+03
+6.53415000000000e-01 +6.24677000000000e-01 +6.99756000000000e-01 +1.70732590136540e+04 +2.19604373469601e+03 +6.30746797010038e+02 +6.68534714026022e+02 +3.27378636589016e+03
+6.38497000000000e-01 +6.53183000000000e-01 +6.65332000000000e-01 +1.99147742852888e+04 +2.09089017351807e+03 +7.07341659621951e+02 +6.74568489895824e+02 +3.44285776108468e+03
+7.77398000000000e-01 +7.59702000000000e-01 +6.10983000000000e-01 +1.19784692338474e+04 +2.37180078922091e+03 +6.07749401573623e+02 +4.62861555553280e+02 +2.99182880223422e+03
+5.83231000000000e-01 +6.68594000000000e-01 +6.15861000000000e-01 +2.39148675843491e+04 +1.97343182303024e+03 +7.79031991588468e+02 +6.76630964308126e+02 +3.63960360153120e+03
+5.50189000000000e-01 +5.90314000000000e-01 +6.70223000000000e-01 +2.57675755615430e+04 +1.94278428690650e+03 +7.11103891212863e+02 +7.60793658941289e+02 +3.69284832127658e+03
+8.02669000000000e-01 +7.15559000000000e-01 +6.70101000000000e-01 +9.96790654441194e+03 +2.45043244939599e+03 +5.07400626910192e+02 +4.66073361862804e+02 +2.84663589492028e+03
+6.48717000000000e-01 +7.10961000000000e-01 +6.09208000000000e-01 +1.91922219210181e+04 +2.11663582603239e+03 +7.54408176862518e+02 +6.12081039638919e+02 +3.40494952699131e+03
+6.23138000000000e-01 +6.78362000000000e-01 +6.30714000000000e-01 +2.00764757400546e+04 +2.08416375578858e+03 +7.34070615223337e+02 +6.55164300068512e+02 +3.45844252405160e+03
+6.65517000000000e-01 +6.87205000000000e-01 +6.44880000000000e-01 +1.85205641194303e+04 +2.13821729966804e+03 +6.99663726667597e+02 +6.38065026719864e+02 +3.36903499700081e+03
+5.98335000000000e-01 +6.45418000000000e-01 +6.49693000000000e-01 +2.25338145657026e+04 +2.00619712985447e+03 +7.42943789434784e+02 +6.95361983400490e+02 +3.57896097306919e+03
+5.53765000000000e-01 +7.13266000000000e-01 +5.40486000000000e-01 +2.53123958834435e+04 +1.90849762704475e+03 +8.54064149902633e+02 +6.18325788344201e+02 +3.73684897006043e+03
+4.81228000000000e-01 +5.93964000000000e-01 +6.14884000000000e-01 +3.39099196365173e+04 +1.71221606569011e+03 +8.01617571068101e+02 +7.67188222911077e+02 +4.04341830517011e+03
+4.84751000000000e-01 +5.67323000000000e-01 +6.42389000000000e-01 +3.40033982419271e+04 +1.70397810965907e+03 +7.62143478997139e+02 +8.26561411781451e+02 +4.04451001368609e+03
+5.10829000000000e-01 +5.58025000000000e-01 +6.70314000000000e-01 +2.94297635839552e+04 +1.83638802471224e+03 +7.06284974396141e+02 +8.27818112608489e+02 +3.84733336209787e+03
+5.17088000000000e-01 +5.96764000000000e-01 +6.40835000000000e-01 +2.87312369877136e+04 +1.84117563027864e+03 +7.56805116777697e+02 +7.62198762776029e+02 +3.84628156672674e+03
+9.66253000000000e-01 +7.04263000000000e-01 +7.09137000000000e-01 +5.55319093889750e+03 +2.67111130159356e+03 +3.03146733396318e+02 +2.80795040055625e+02 +2.41743705888354e+03
+9.43390000000000e-01 +2.88094000000000e-01 +9.55927000000000e-01 +5.49049572736503e+03 +2.67560743307173e+03 +1.24145092568356e+02 +4.07719555211750e+02 +2.39928796085327e+03
+6.09004000000000e-01 +7.02657000000000e-01 +5.94471000000000e-01 +2.24597576662840e+04 +2.00480313519591e+03 +8.04031279316618e+02 +6.27910876573536e+02 +3.58079488475014e+03
+5.69357000000000e-01 +6.91827000000000e-01 +5.79588000000000e-01 +2.47249130059299e+04 +1.92382699830927e+03 +8.24807602270685e+02 +6.45835468484970e+02 +3.71002617031037e+03
+5.85728000000000e-01 +8.78541000000000e-01 +2.37790000000000e-01 +2.30014386128913e+04 +2.01277610871630e+03 +9.49300102882768e+02 +2.62431108808995e+02 +3.60019751354077e+03
+5.43905000000000e-01 +8.58738000000000e-01 +2.33550000000000e-01 +2.66188101611177e+04 +1.88848778424098e+03 +1.00764523519625e+03 +3.04295364288843e+02 +3.77667472170752e+03
+3.04899000000000e-01 +6.18288000000000e-01 +3.66816000000000e-01 +5.63559699044629e+04 +1.18425484503927e+03 +9.94785117696667e+02 +6.11328940217445e+02 +4.78429838777761e+03
+3.21153000000000e-01 +6.08588000000000e-01 +4.10837000000000e-01 +5.42630099000403e+04 +1.21597016933034e+03 +9.66127667941077e+02 +6.61058073063572e+02 +4.73145595856339e+03
+8.49373000000000e-01 +6.71262000000000e-01 +7.25754000000000e-01 +8.64443363249344e+03 +2.52498853114937e+03 +4.48646272218251e+02 +4.30196673816638e+02 +2.70574075966592e+03
+6.24514000000000e-01 +5.89479000000000e-01 +7.15210000000000e-01 +2.07691117797543e+04 +2.07364601253480e+03 +6.58849172106979e+02 +7.69371503753190e+02 +3.44995335456745e+03
+5.84742000000000e-01 +5.86929000000000e-01 +6.95037000000000e-01 +2.40993811709644e+04 +1.99605613470286e+03 +6.84033040417778e+02 +7.50767708081862e+02 +3.60543130041446e+03
+5.45016000000000e-01 +6.58328000000000e-01 +5.99661000000000e-01 +2.67950321856444e+04 +1.88630796687336e+03 +8.16905706439262e+02 +7.00471234013116e+02 +3.76549853579770e+03
+6.55287000000000e-01 +4.77307000000000e-01 +8.08301000000000e-01 +1.84026334797144e+04 +2.16408844432477e+03 +4.64908030838154e+02 +7.87206553301442e+02 +3.33412638679071e+03
+6.86589000000000e-01 +5.16977000000000e-01 +7.96560000000000e-01 +1.62869171539612e+04 +2.23893453937333e+03 +4.66766458666733e+02 +7.39851688808628e+02 +3.20899089949640e+03
+3.52035000000000e-01 +6.16143000000000e-01 +4.47783000000000e-01 +4.98623259158032e+04 +1.30578132211745e+03 +9.38639720017322e+02 +6.91397675174263e+02 +4.60998839435583e+03
+5.73700000000000e-01 +9.01780000000000e-01 +7.11424000000000e-02 +2.34291249600011e+04 +1.99579619835176e+03 +1.03589413122164e+03 +9.65277367922956e+01 +3.58596562272506e+03
+7.41451000000000e-01 +4.75512000000000e-01 +8.40857000000000e-01 +1.24942426165852e+04 +2.37002849952135e+03 +3.76871003687278e+02 +6.61242626926094e+02 +2.98836294329257e+03
+6.65994000000000e-01 +4.44874000000000e-01 +8.30979000000000e-01 +1.80642209184231e+04 +2.16661461896821e+03 +4.22696581313116e+02 +8.39555157760747e+02 +3.31414446379020e+03
+6.76460000000000e-01 +8.60083000000000e-01 +3.94434000000000e-01 +1.69147698404485e+04 +2.20393316999765e+03 +7.88351462343421e+02 +3.84969138622340e+02 +3.28116752767707e+03
+6.60058000000000e-01 +8.36355000000000e-01 +4.30058000000000e-01 +1.72790472088682e+04 +2.19507658139628e+03 +7.77817227989335e+02 +4.47345384529204e+02 +3.30306255551360e+03
+4.42385000000000e-01 +2.73490000000000e-01 +7.83753000000000e-01 +3.69506319799119e+04 +1.62557480455513e+03 +3.61200117922137e+02 +1.05702338962895e+03 +4.18783418774819e+03
+4.86912000000000e-01 +2.36657000000000e-01 +8.25066000000000e-01 +3.14338803342044e+04 +1.77010825149045e+03 +2.81659692178965e+02 +1.05767595934179e+03 +3.96211073006593e+03
+9.55028000000000e-01 +9.73685000000000e-01 +2.23419000000000e-01 +5.44237431812578e+03 +2.68601252246075e+03 +3.63316241258072e+02 +8.65211410472741e+01 +2.40083465809589e+03
+5.80052000000000e-01 +6.15042000000000e-01 +6.67358000000000e-01 +2.30660140047442e+04 +2.00790896856138e+03 +7.11243406954480e+02 +7.19887070366459e+02 +3.58689539053039e+03
+6.13161000000000e-01 +6.20394000000000e-01 +6.82252000000000e-01 +2.14959021692518e+04 +2.06303578404470e+03 +6.85446777595670e+02 +7.11954789742413e+02 +3.49648717172590e+03
+5.54783000000000e-01 +6.29582000000000e-01 +6.36717000000000e-01 +2.55400594604149e+04 +1.92377043109518e+03 +7.70429330424461e+02 +7.23416716873613e+02 +3.70956475754606e+03
+7.80186000000000e-01 +2.71171000000000e-01 +9.37096000000000e-01 +1.14034885673614e+04 +2.41925983114640e+03 +1.80012356149266e+02 +6.95428990103459e+02 +2.91376378594370e+03
+7.48796000000000e-01 +3.07116000000000e-01 +9.17920000000000e-01 +1.30252757851033e+04 +2.33822371763996e+03 +2.23224531379484e+02 +7.77340544368223e+02 +3.03472021557964e+03
+3.95658000000000e-01 +2.78108000000000e-01 +7.46610000000000e-01 +4.20774052499052e+04 +1.48880821471926e+03 +3.97755115417681e+02 +1.08483147924629e+03 +4.36023552704052e+03
+7.13238000000000e-01 +8.70229000000000e-01 +4.00585000000000e-01 +1.47189281704124e+04 +2.27979988760363e+03 +7.27130222266249e+02 +3.76861215359456e+02 +3.14947403086686e+03
+6.67796000000000e-01 +9.42522000000000e-01 +3.59570000000000e-02 +1.77272420022391e+04 +2.17792651162257e+03 +9.16894114319418e+02 +4.27963742049963e+01 +3.30409475183768e+03
+4.55628000000000e-01 +6.34217000000000e-01 +5.49025000000000e-01 +3.58197751219222e+04 +1.64730209546788e+03 +8.70347583583345e+02 +7.07953449176447e+02 +4.14638081944626e+03
+6.67154000000000e-01 +4.05974000000000e-01 +8.51116000000000e-01 +1.77545885550513e+04 +2.16051358919042e+03 +3.88622898101467e+02 +8.67819096153816e+02 +3.31523344815936e+03
+5.13538000000000e-01 +2.62299000000000e-01 +8.33399000000000e-01 +2.92305321430685e+04 +1.82803895098553e+03 +3.05564472816547e+02 +1.03959965550149e+03 +3.87081068893099e+03
+5.34696000000000e-01 +2.36898000000000e-01 +8.52861000000000e-01 +2.70134429913488e+04 +1.90606789970542e+03 +2.62895617075530e+02 +9.98075804118100e+02 +3.77622771104308e+03
+7.39525000000000e-01 +3.56189000000000e-01 +8.97375000000000e-01 +1.27007847338091e+04 +2.35102534315766e+03 +2.87296431602814e+02 +7.51497021336077e+02 +3.01220274669570e+03
+7.20004000000000e-02 +5.02666000000000e-02 +3.69175000000000e-01 +1.02966018712518e+05 +3.01505096878204e+02 +1.12368261491430e+02 +7.01600446563712e+02 +5.96541192951313e+03
+5.51400000000000e-02 +3.23227000000000e-01 +5.25703000000000e-02 +1.11497463321704e+05 +2.75557459397144e+02 +6.37923556443269e+02 +1.13190357823373e+02 +6.03876268475695e+03
+7.84033000000000e-01 +9.06599000000000e-01 +3.62543000000000e-01 +1.20651914462225e+04 +2.37110408802596e+03 +7.01074432343240e+02 +2.97673994527055e+02 +2.98489294382790e+03
+9.41843000000000e-01 +9.49307000000000e-01 +3.08925000000000e-01 +5.06075759887500e+03 +2.69722826147443e+03 +3.38418652001576e+02 +8.67874350249896e+01 +2.36468083618587e+03