TITLE = "tangentSlab"
VARIABLES = "X"
"Y"
"Z"
"e_partial_density"
"N_partial_density"
"Np_partial_density"
"O_partial_density"
"Op_partial_density"
"NO_partial_density"
"N2_partial_density"
"N2p_partial_density"
"O2_partial_density"
"O2p_partial_density"
"NOp_partial_density"
"pressure"
"Tr"
"Tv"
ZONE T= "firstBoundary"
 STRANDID=0, SOLUTIONTIME=0
 Nodes=4, Elements=1, ZONETYPE=FEQuadrilateral
 DATAPACKING=POINT
 DT=(DOUBLE DOUBLE DOUBLE DOUBLE DOUBLE DOUBLE DOUBLE DOUBLE DOUBLE DOUBLE DOUBLE DOUBLE DOUBLE DOUBLE DOUBLE DOUBLE DOUBLE )
 0 0 0.935 1.15081527e-10 0.0032982552 1.61097447e-06 0.00113641305 8.5918831e-07 1.84569382e-06 0.000810462406 7.03869453e-11 7.27312375e-07 1.42084947e-06 5.6536553e-11 4600.97533 1645.6605 4120.47632 
 0.0558290736 0 0.935 1.15081527e-10 0.0032982552 1.61097447e-06 0.00113641305 8.5918831e-07 1.84569382e-06 0.000810462406 7.03869453e-11 7.27312375e-07 1.42084947e-06 5.6536553e-11 4600.97533 1645.6605 4120.47632 
 0.0558290736 0.0558290736 0.935 1.15081527e-10 0.0032982552 1.61097447e-06 0.00113641305 8.5918831e-07 1.84569382e-06 0.000810462406 7.03869453e-11 7.27312375e-07 1.42084947e-06 5.6536553e-11 4600.97533 1645.6605 4120.47632 
 0 0.0558290736 0.935 1.15081527e-10 0.0032982552 1.61097447e-06 0.00113641305 8.5918831e-07 1.84569382e-06 0.000810462406 7.03869453e-11 7.27312375e-07 1.42084947e-06 5.6536553e-11 4600.97533 1645.6605 4120.47632 
 1 2 3 4
ZONE T= "secondBoundary"
 STRANDID=0, SOLUTIONTIME=0
 Nodes=4, Elements=1, ZONETYPE=FEQuadrilateral
 DATAPACKING=POINT
 DT=(DOUBLE DOUBLE DOUBLE DOUBLE DOUBLE DOUBLE DOUBLE DOUBLE DOUBLE DOUBLE DOUBLE DOUBLE DOUBLE DOUBLE DOUBLE DOUBLE DOUBLE )
 0 0 0.990829074 -1.05877039e-10 0.00108225155 2.41258189e-06 0.000385927943 6.09287947e-07 1.08672078e-06 0.000348059875 -1.30197758e-07 9.61665051e-06 1.2790335e-06 3.09858249e-09 -21.889624 405.001432 311.764121 
 0.0558290736 0 0.990829074 -1.05877039e-10 0.00108225155 2.41258189e-06 0.000385927943 6.09287947e-07 1.08672078e-06 0.000348059875 -1.30197758e-07 9.61665051e-06 1.2790335e-06 3.09858249e-09 -21.889624 405.001432 311.764121 
 0.0558290736 0.0558290736 0.990829074 -1.05877039e-10 0.00108225155 2.41258189e-06 0.000385927943 6.09287947e-07 1.08672078e-06 0.000348059875 -1.30197758e-07 9.61665051e-06 1.2790335e-06 3.09858249e-09 -21.889624 405.001432 311.764121 
 0 0.0558290736 0.990829074 -1.05877039e-10 0.00108225155 2.41258189e-06 0.000385927943 6.09287947e-07 1.08672078e-06 0.000348059875 -1.30197758e-07 9.61665051e-06 1.2790335e-06 3.09858249e-09 -21.889624 405.001432 311.764121 
 1 2 3 4
ZONE T= "reflectingBoundary"
 STRANDID=0, SOLUTIONTIME=0
 Nodes=176, Elements=172, ZONETYPE=FEQuadrilateral
 DATAPACKING=POINT
 DT=(DOUBLE DOUBLE DOUBLE DOUBLE DOUBLE DOUBLE DOUBLE DOUBLE DOUBLE DOUBLE DOUBLE DOUBLE DOUBLE DOUBLE DOUBLE DOUBLE DOUBLE )
 0 0 0.935 1.15081527e-10 0.0032982552 1.61097447e-06 0.00113641305 8.5918831e-07 1.84569382e-06 0.000810462406 7.03869453e-11 7.27312375e-07 1.42084947e-06 5.6536553e-11 4600.97533 1645.6605 4120.47632 
 0.0558290736 0 0.935 1.15081527e-10 0.0032982552 1.61097447e-06 0.00113641305 8.5918831e-07 1.84569382e-06 0.000810462406 7.03869453e-11 7.27312375e-07 1.42084947e-06 5.6536553e-11 4600.97533 1645.6605 4120.47632 
 0.0558290736 0.0558290736 0.935 1.15081527e-10 0.0032982552 1.61097447e-06 0.00113641305 8.5918831e-07 1.84569382e-06 0.000810462406 7.03869453e-11 7.27312375e-07 1.42084947e-06 5.6536553e-11 4600.97533 1645.6605 4120.47632 
 0 0.0558290736 0.935 1.15081527e-10 0.0032982552 1.61097447e-06 0.00113641305 8.5918831e-07 1.84569382e-06 0.000810462406 7.03869453e-11 7.27312375e-07 1.42084947e-06 5.6536553e-11 4600.97533 1645.6605 4120.47632 
 0 0 0.9353153 1.15081527e-10 0.0032982552 1.61097447e-06 0.00113641305 8.5918831e-07 1.84569382e-06 0.000810462406 7.03869453e-11 7.27312375e-07 1.42084947e-06 5.6536553e-11 4600.97533 1645.6605 4120.47632 
 0.0558290736 0 0.9353153 1.15081527e-10 0.0032982552 1.61097447e-06 0.00113641305 8.5918831e-07 1.84569382e-06 0.000810462406 7.03869453e-11 7.27312375e-07 1.42084947e-06 5.6536553e-11 4600.97533 1645.6605 4120.47632 
 0.0558290736 0.0558290736 0.9353153 1.15081527e-10 0.0032982552 1.61097447e-06 0.00113641305 8.5918831e-07 1.84569382e-06 0.000810462406 7.03869453e-11 7.27312375e-07 1.42084947e-06 5.6536553e-11 4600.97533 1645.6605 4120.47632 
 0 0.0558290736 0.9353153 1.15081527e-10 0.0032982552 1.61097447e-06 0.00113641305 8.5918831e-07 1.84569382e-06 0.000810462406 7.03869453e-11 7.27312375e-07 1.42084947e-06 5.6536553e-11 4600.97533 1645.6605 4120.47632 
 0 0 0.935956194 4.16149099e-10 0.00022893571 1.3378836e-05 4.54995597e-05 3.02602334e-06 -1.47864995e-06 -9.82592729e-05 -2.10694794e-11 -6.65086414e-07 -9.35000444e-07 5.1474435e-09 4598.07922 4600.45797 7537.8836 
 0.0558290736 0 0.935956194 4.16149099e-10 0.00022893571 1.3378836e-05 4.54995597e-05 3.02602334e-06 -1.47864995e-06 -9.82592729e-05 -2.10694794e-11 -6.65086414e-07 -9.35000444e-07 5.1474435e-09 4598.07922 4600.45797 7537.8836 
 0.0558290736 0.0558290736 0.935956194 4.16149099e-10 0.00022893571 1.3378836e-05 4.54995597e-05 3.02602334e-06 -1.47864995e-06 -9.82592729e-05 -2.10694794e-11 -6.65086414e-07 -9.35000444e-07 5.1474435e-09 4598.07922 4600.45797 7537.8836 
 0 0.0558290736 0.935956194 4.16149099e-10 0.00022893571 1.3378836e-05 4.54995597e-05 3.02602334e-06 -1.47864995e-06 -9.82592729e-05 -2.10694794e-11 -6.65086414e-07 -9.35000444e-07 5.1474435e-09 4598.07922 4600.45797 7537.8836 
 0 0 0.937327364 4.26574832e-10 0.00197978601 2.48085584e-05 0.000671878718 5.25168963e-06 1.79915754e-06 0.00041515009 6.25448506e-10 6.70451346e-07 1.61459343e-06 4.83849711e-08 4593.40726 5483.85543 6469.18562 
 0.0558290736 0 0.937327364 4.26574832e-10 0.00197978601 2.48085584e-05 0.000671878718 5.25168963e-06 1.79915754e-06 0.00041515009 6.25448506e-10 6.70451346e-07 1.61459343e-06 4.83849711e-08 4593.40726 5483.85543 6469.18562 
 0.0558290736 0.0558290736 0.937327364 4.26574832e-10 0.00197978601 2.48085584e-05 0.000671878718 5.25168963e-06 1.79915754e-06 0.00041515009 6.25448506e-10 6.70451346e-07 1.61459343e-06 4.83849711e-08 4593.40726 5483.85543 6469.18562 
 0 0.0558290736 0.937327364 4.26574832e-10 0.00197978601 2.48085584e-05 0.000671878718 5.25168963e-06 1.79915754e-06 0.00041515009 6.25448506e-10 6.70451346e-07 1.61459343e-06 4.83849711e-08 4593.40726 5483.85543 6469.18562 
 0 0 0.939539452 1.35701063e-09 -0.000418583921 2.98726783e-05 -0.000176921228 5.81509641e-06 -9.93140649e-07 -0.000289310359 6.18894468e-09 -6.65001797e-07 -8.91528832e-07 4.04995214e-08 4586.6494 8743.68005 9624.18002 
 0.0558290736 0 0.939539452 1.35701063e-09 -0.000418583921 2.98726783e-05 -0.000176921228 5.81509641e-06 -9.93140649e-07 -0.000289310359 6.18894468e-09 -6.65001797e-07 -8.91528832e-07 4.04995214e-08 4586.6494 8743.68005 9624.18002 
 0.0558290736 0.0558290736 0.939539452 1.35701063e-09 -0.000418583921 2.98726783e-05 -0.000176921228 5.81509641e-06 -9.93140649e-07 -0.000289310359 6.18894468e-09 -6.65001797e-07 -8.91528832e-07 4.04995214e-08 4586.6494 8743.68005 9624.18002 
 0 0.0558290736 0.939539452 1.35701063e-09 -0.000418583921 2.98726783e-05 -0.000176921228 5.81509641e-06 -9.93140649e-07 -0.000289310359 6.18894468e-09 -6.65001797e-07 -8.91528832e-07 4.04995214e-08 4586.6494 8743.68005 9624.18002 
 0 0 0.94337388 1.83301264e-09 0.0016422516 5.13103745e-05 0.000560840023 1.03291525e-05 1.62419477e-06 0.000324803055 1.18058088e-08 6.69584086e-07 1.75340741e-06 4.19896384e-08 4573.53689 8823.13486 8391.14441 
 0.0558290736 0 0.94337388 1.83301264e-09 0.0016422516 5.13103745e-05 0.000560840023 1.03291525e-05 1.62419477e-06 0.000324803055 1.18058088e-08 6.69584086e-07 1.75340741e-06 4.19896384e-08 4573.53689 8823.13486 8391.14441 
 0.0558290736 0.0558290736 0.94337388 1.83301264e-09 0.0016422516 5.13103745e-05 0.000560840023 1.03291525e-05 1.62419477e-06 0.000324803055 1.18058088e-08 6.69584086e-07 1.75340741e-06 4.19896384e-08 4573.53689 8823.13486 8391.14441 
 0 0.0558290736 0.94337388 1.83301264e-09 0.0016422516 5.13103745e-05 0.000560840023 1.03291525e-05 1.62419477e-06 0.000324803055 1.18058088e-08 6.69584086e-07 1.75340741e-06 4.19896384e-08 4573.53689 8823.13486 8391.14441 
 0 0 0.948294146 2.59552488e-09 -0.000566007671 5.29765501e-05 -0.000223517616 1.01113627e-05 -1.29522986e-06 -0.0003133948 2.51108598e-08 -6.66970484e-07 -7.53234694e-07 2.43133664e-08 4569.27596 10273.0905 10744.5247 
 0.0558290736 0 0.948294146 2.59552488e-09 -0.000566007671 5.29765501e-05 -0.000223517616 1.01113627e-05 -1.29522986e-06 -0.0003133948 2.51108598e-08 -6.66970484e-07 -7.53234694e-07 2.43133664e-08 4569.27596 10273.0905 10744.5247 
 0.0558290736 0.0558290736 0.948294146 2.59552488e-09 -0.000566007671 5.29765501e-05 -0.000223517616 1.01113627e-05 -1.29522986e-06 -0.0003133948 2.51108598e-08 -6.66970484e-07 -7.53234694e-07 2.43133664e-08 4569.27596 10273.0905 10744.5247 
 0 0.0558290736 0.948294146 2.59552488e-09 -0.000566007671 5.29765501e-05 -0.000223517616 1.01113627e-05 -1.29522986e-06 -0.0003133948 2.51108598e-08 -6.66970484e-07 -7.53234694e-07 2.43133664e-08 4569.27596 10273.0905 10744.5247 
 0 0 0.952476093 2.46866373e-09 0.00157307677 5.87471487e-05 0.000543083018 1.11013291e-05 1.94069122e-06 0.000331447643 3.85059493e-09 6.71924609e-07 1.81321176e-06 3.48622177e-08 4558.66763 9512.32418 8801.6806 
 0.0558290736 0 0.952476093 2.46866373e-09 0.00157307677 5.87471487e-05 0.000543083018 1.11013291e-05 1.94069122e-06 0.000331447643 3.85059493e-09 6.71924609e-07 1.81321176e-06 3.48622177e-08 4558.66763 9512.32418 8801.6806 
 0.0558290736 0.0558290736 0.952476093 2.46866373e-09 0.00157307677 5.87471487e-05 0.000543083018 1.11013291e-05 1.94069122e-06 0.000331447643 3.85059493e-09 6.71924609e-07 1.81321176e-06 3.48622177e-08 4558.66763 9512.32418 8801.6806 
 0 0.0558290736 0.952476093 2.46866373e-09 0.00157307677 5.87471487e-05 0.000543083018 1.11013291e-05 1.94069122e-06 0.000331447643 3.85059493e-09 6.71924609e-07 1.81321176e-06 3.48622177e-08 4558.66763 9512.32418 8801.6806 
 0 0 0.955736773 2.32758142e-09 -0.000627040552 4.63871533e-05 -0.000238659927 8.22481602e-06 -2.90023844e-07 -0.000296736869 2.77744007e-08 -6.59285103e-07 -7.34183601e-07 3.28573724e-08 4545.51684 11363.7837 11037.8713 
 0.0558290736 0 0.955736773 2.32758142e-09 -0.000627040552 4.63871533e-05 -0.000238659927 8.22481602e-06 -2.90023844e-07 -0.000296736869 2.77744007e-08 -6.59285103e-07 -7.34183601e-07 3.28573724e-08 4545.51684 11363.7837 11037.8713 
 0.0558290736 0.0558290736 0.955736773 2.32758142e-09 -0.000627040552 4.63871533e-05 -0.000238659927 8.22481602e-06 -2.90023844e-07 -0.000296736869 2.77744007e-08 -6.59285103e-07 -7.34183601e-07 3.28573724e-08 4545.51684 11363.7837 11037.8713 
 0 0.0558290736 0.955736773 2.32758142e-09 -0.000627040552 4.63871533e-05 -0.000238659927 8.22481602e-06 -2.90023844e-07 -0.000296736869 2.77744007e-08 -6.59285103e-07 -7.34183601e-07 3.28573724e-08 4545.51684 11363.7837 11037.8713 
 0 0 0.958592023 1.59524299e-09 0.00149407877 3.96811651e-05 0.000520596034 7.24340659e-06 4.14152226e-06 0.000350399196 4.08333235e-08 6.89085097e-07 1.78961818e-06 6.2972713e-08 4519.40918 11585.1568 9222.41781 
 0.0558290736 0 0.958592023 1.59524299e-09 0.00149407877 3.96811651e-05 0.000520596034 7.24340659e-06 4.14152226e-06 0.000350399196 4.08333235e-08 6.89085097e-07 1.78961818e-06 6.2972713e-08 4519.40918 11585.1568 9222.41781 
 0.0558290736 0.0558290736 0.958592023 1.59524299e-09 0.00149407877 3.96811651e-05 0.000520596034 7.24340659e-06 4.14152226e-06 0.000350399196 4.08333235e-08 6.89085097e-07 1.78961818e-06 6.2972713e-08 4519.40918 11585.1568 9222.41781 
 0 0.0558290736 0.958592023 1.59524299e-09 0.00149407877 3.96811651e-05 0.000520596034 7.24340659e-06 4.14152226e-06 0.000350399196 4.08333235e-08 6.89085097e-07 1.78961818e-06 6.2972713e-08 4519.40918 11585.1568 9222.41781 
 0 0 0.961365393 1.34608298e-09 -0.000715634475 2.47843397e-05 -0.000264612029 4.17105376e-06 3.77399322e-06 -0.000278434744 1.28303748e-07 -6.28125107e-07 -7.87986156e-07 8.3388674e-08 4496.64569 14212.8897 11507.7412 
 0.0558290736 0 0.961365393 1.34608298e-09 -0.000715634475 2.47843397e-05 -0.000264612029 4.17105376e-06 3.77399322e-06 -0.000278434744 1.28303748e-07 -6.28125107e-07 -7.87986156e-07 8.3388674e-08 4496.64569 14212.8897 11507.7412 
 0.0558290736 0.0558290736 0.961365393 1.34608298e-09 -0.000715634475 2.47843397e-05 -0.000264612029 4.17105376e-06 3.77399322e-06 -0.000278434744 1.28303748e-07 -6.28125107e-07 -7.87986156e-07 8.3388674e-08 4496.64569 14212.8897 11507.7412 
 0 0.0558290736 0.961365393 1.34608298e-09 -0.000715634475 2.47843397e-05 -0.000264612029 4.17105376e-06 3.77399322e-06 -0.000278434744 1.28303748e-07 -6.28125107e-07 -7.87986156e-07 8.3388674e-08 4496.64569 14212.8897 11507.7412 
 0 0 0.964124243 8.0876264e-10 0.00140999917 2.22653549e-05 0.000496109494 4.05863541e-06 1.05211728e-05 0.000367958959 2.540842e-07 7.36481671e-07 1.72856824e-06 1.33671827e-07 4465.10755 14717.2602 9693.50912 
 0.0558290736 0 0.964124243 8.0876264e-10 0.00140999917 2.22653549e-05 0.000496109494 4.05863541e-06 1.05211728e-05 0.000367958959 2.540842e-07 7.36481671e-07 1.72856824e-06 1.33671827e-07 4465.10755 14717.2602 9693.50912 
 0.0558290736 0.0558290736 0.964124243 8.0876264e-10 0.00140999917 2.22653549e-05 0.000496109494 4.05863541e-06 1.05211728e-05 0.000367958959 2.540842e-07 7.36481671e-07 1.72856824e-06 1.33671827e-07 4465.10755 14717.2602 9693.50912 
 0 0.0558290736 0.964124243 8.0876264e-10 0.00140999917 2.22653549e-05 0.000496109494 4.05863541e-06 1.05211728e-05 0.000367958959 2.540842e-07 7.36481671e-07 1.72856824e-06 1.33671827e-07 4465.10755 14717.2602 9693.50912 
 0 0 0.966794137 7.83842845e-10 -0.000790859257 1.22077447e-05 -0.000286732569 1.90627962e-06 1.27500634e-05 -0.000261378763 5.03230681e-07 -5.64507694e-07 -8.41563351e-07 1.71074834e-07 4437.37893 17370.592 12051.3457 
 0.0558290736 0 0.966794137 7.83842845e-10 -0.000790859257 1.22077447e-05 -0.000286732569 1.90627962e-06 1.27500634e-05 -0.000261378763 5.03230681e-07 -5.64507694e-07 -8.41563351e-07 1.71074834e-07 4437.37893 17370.592 12051.3457 
 0.0558290736 0.0558290736 0.966794137 7.83842845e-10 -0.000790859257 1.22077447e-05 -0.000286732569 1.90627962e-06 1.27500634e-05 -0.000261378763 5.03230681e-07 -5.64507694e-07 -8.41563351e-07 1.71074834e-07 4437.37893 17370.592 12051.3457 
 0 0.0558290736 0.966794137 7.83842845e-10 -0.000790859257 1.22077447e-05 -0.000286732569 1.90627962e-06 1.27500634e-05 -0.000261378763 5.03230681e-07 -5.64507694e-07 -8.41563351e-07 1.71074834e-07 4437.37893 17370.592 12051.3457 
 0 0 0.969277996 4.0991768e-10 0.00134215734 1.31712129e-05 0.00047536204 2.44954145e-06 2.22313019e-05 0.00038424173 8.45958999e-07 8.14343928e-07 1.68484085e-06 2.36720377e-07 4400.27658 17907.6658 10344.8597 
 0.0558290736 0 0.969277996 4.0991768e-10 0.00134215734 1.31712129e-05 0.00047536204 2.44954145e-06 2.22313019e-05 0.00038424173 8.45958999e-07 8.14343928e-07 1.68484085e-06 2.36720377e-07 4400.27658 17907.6658 10344.8597 
 0.0558290736 0.0558290736 0.969277996 4.0991768e-10 0.00134215734 1.31712129e-05 0.00047536204 2.44954145e-06 2.22313019e-05 0.00038424173 8.45958999e-07 8.14343928e-07 1.68484085e-06 2.36720377e-07 4400.27658 17907.6658 10344.8597 
 0 0.0558290736 0.969277996 4.0991768e-10 0.00134215734 1.31712129e-05 0.00047536204 2.44954145e-06 2.22313019e-05 0.00038424173 8.45958999e-07 8.14343928e-07 1.68484085e-06 2.36720377e-07 4400.27658 17907.6658 10344.8597 
 0 0 0.971520748 4.96751168e-10 -0.000853399958 5.43725979e-06 -0.00030695151 7.32576474e-07 2.68919477e-05 -0.000246476155 1.37834966e-06 -4.75487087e-07 -8.79220168e-07 2.86735491e-07 4366.9144 20699.8736 12795.5362 
 0.0558290736 0 0.971520748 4.96751168e-10 -0.000853399958 5.43725979e-06 -0.00030695151 7.32576474e-07 2.68919477e-05 -0.000246476155 1.37834966e-06 -4.75487087e-07 -8.79220168e-07 2.86735491e-07 4366.9144 20699.8736 12795.5362 
 0.0558290736 0.0558290736 0.971520748 4.96751168e-10 -0.000853399958 5.43725979e-06 -0.00030695151 7.32576474e-07 2.68919477e-05 -0.000246476155 1.37834966e-06 -4.75487087e-07 -8.79220168e-07 2.86735491e-07 4366.9144 20699.8736 12795.5362 
 0 0.0558290736 0.971520748 4.96751168e-10 -0.000853399958 5.43725979e-06 -0.00030695151 7.32576474e-07 2.68919477e-05 -0.000246476155 1.37834966e-06 -4.75487087e-07 -8.79220168e-07 2.86735491e-07 4366.9144 20699.8736 12795.5362 
 0 0 0.973494945 2.03808346e-10 0.00128408268 8.03903473e-06 0.000455678864 1.576791e-06 3.7678738e-05 0.000397441826 2.04683272e-06 9.25636887e-07 1.64903074e-06 3.56924786e-07 4324.44297 21452.7231 11151.1552 
 0.0558290736 0 0.973494945 2.03808346e-10 0.00128408268 8.03903473e-06 0.000455678864 1.576791e-06 3.7678738e-05 0.000397441826 2.04683272e-06 9.25636887e-07 1.64903074e-06 3.56924786e-07 4324.44297 21452.7231 11151.1552 
 0.0558290736 0.0558290736 0.973494945 2.03808346e-10 0.00128408268 8.03903473e-06 0.000455678864 1.576791e-06 3.7678738e-05 0.000397441826 2.04683272e-06 9.25636887e-07 1.64903074e-06 3.56924786e-07 4324.44297 21452.7231 11151.1552 
 0 0.0558290736 0.973494945 2.03808346e-10 0.00128408268 8.03903473e-06 0.000455678864 1.576791e-06 3.7678738e-05 0.000397441826 2.04683272e-06 9.25636887e-07 1.64903074e-06 3.56924786e-07 4324.44297 21452.7231 11151.1552 
 0 0 0.975198107 3.52004971e-10 -0.000907269946 1.54568665e-06 -0.000325496807 7.77622131e-08 4.15670943e-05 -0.000234766215 2.86142845e-06 -2.53205711e-07 -9.1733486e-07 3.94540995e-07 4285.11653 24504.563 13587.9039 
 0.0558290736 0 0.975198107 3.52004971e-10 -0.000907269946 1.54568665e-06 -0.000325496807 7.77622131e-08 4.15670943e-05 -0.000234766215 2.86142845e-06 -2.53205711e-07 -9.1733486e-07 3.94540995e-07 4285.11653 24504.563 13587.9039 
 0.0558290736 0.0558290736 0.975198107 3.52004971e-10 -0.000907269946 1.54568665e-06 -0.000325496807 7.77622131e-08 4.15670943e-05 -0.000234766215 2.86142845e-06 -2.53205711e-07 -9.1733486e-07 3.94540995e-07 4285.11653 24504.563 13587.9039 
 0 0.0558290736 0.975198107 3.52004971e-10 -0.000907269946 1.54568665e-06 -0.000325496807 7.77622131e-08 4.15670943e-05 -0.000234766215 2.86142845e-06 -2.53205711e-07 -9.1733486e-07 3.94540995e-07 4285.11653 24504.563 13587.9039 
 0 0 0.976651284 1.05147344e-10 0.00123451155 5.14560748e-06 0.000439068806 1.08791512e-06 4.91560413e-05 0.000408438525 3.6290452e-06 1.54261492e-06 1.6061823e-06 4.3126642e-07 4236.96915 25518.5426 11878.9903 
 0.0558290736 0 0.976651284 1.05147344e-10 0.00123451155 5.14560748e-06 0.000439068806 1.08791512e-06 4.91560413e-05 0.000408438525 3.6290452e-06 1.54261492e-06 1.6061823e-06 4.3126642e-07 4236.96915 25518.5426 11878.9903 
 0.0558290736 0.0558290736 0.976651284 1.05147344e-10 0.00123451155 5.14560748e-06 0.000439068806 1.08791512e-06 4.91560413e-05 0.000408438525 3.6290452e-06 1.54261492e-06 1.6061823e-06 4.3126642e-07 4236.96915 25518.5426 11878.9903 
 0 0.0558290736 0.976651284 1.05147344e-10 0.00123451155 5.14560748e-06 0.000439068806 1.08791512e-06 4.91560413e-05 0.000408438525 3.6290452e-06 1.54261492e-06 1.6061823e-06 4.3126642e-07 4236.96915 25518.5426 11878.9903 
 0 0 0.977885632 2.85045472e-10 -0.000952383541 -5.49486744e-07 -0.000339760909 -2.80861647e-07 4.80530103e-05 -0.00022357018 4.28397658e-06 1.28150337e-06 -9.63695832e-07 4.20217615e-07 4192.14973 28800.9616 14201.4036 
 0.0558290736 0 0.977885632 2.85045472e-10 -0.000952383541 -5.49486744e-07 -0.000339760909 -2.80861647e-07 4.80530103e-05 -0.00022357018 4.28397658e-06 1.28150337e-06 -9.63695832e-07 4.20217615e-07 4192.14973 28800.9616 14201.4036 
 0.0558290736 0.0558290736 0.977885632 2.85045472e-10 -0.000952383541 -5.49486744e-07 -0.000339760909 -2.80861647e-07 4.80530103e-05 -0.00022357018 4.28397658e-06 1.28150337e-06 -9.63695832e-07 4.20217615e-07 4192.14973 28800.9616 14201.4036 
 0 0.0558290736 0.977885632 2.85045472e-10 -0.000952383541 -5.49486744e-07 -0.000339760909 -2.80861647e-07 4.80530103e-05 -0.00022357018 4.28397658e-06 1.28150337e-06 -9.63695832e-07 4.20217615e-07 4192.14973 28800.9616 14201.4036 
 0 0 0.978935397 5.78686462e-11 0.00119391753 3.66772999e-06 0.000426947506 8.31437989e-07 5.0089683e-05 0.00042017447 4.6904165e-06 4.55997728e-06 1.5584695e-06 4.05750467e-07 4137.66925 30009.7373 12341.5351 
 0.0558290736 0 0.978935397 5.78686462e-11 0.00119391753 3.66772999e-06 0.000426947506 8.31437989e-07 5.0089683e-05 0.00042017447 4.6904165e-06 4.55997728e-06 1.5584695e-06 4.05750467e-07 4137.66925 30009.7373 12341.5351 
 0.0558290736 0.0558290736 0.978935397 5.78686462e-11 0.00119391753 3.66772999e-06 0.000426947506 8.31437989e-07 5.0089683e-05 0.00042017447 4.6904165e-06 4.55997728e-06 1.5584695e-06 4.05750467e-07 4137.66925 30009.7373 12341.5351 
 0 0.0558290736 0.978935397 5.78686462e-11 0.00119391753 3.66772999e-06 0.000426947506 8.31437989e-07 5.0089683e-05 0.00042017447 4.6904165e-06 4.55997728e-06 1.5584695e-06 4.05750467e-07 4137.66925 30009.7373 12341.5351 
 0 0 0.979834963 2.48627797e-10 -0.000988653083 -1.57243893e-06 -0.000350326125 -4.60414183e-07 4.39815629e-05 -0.000211766615 4.89393995e-06 6.05215967e-06 -1.01156449e-06 3.52541307e-07 4078.5946 33451.2641 14495.4552 
 0.0558290736 0 0.979834963 2.48627797e-10 -0.000988653083 -1.57243893e-06 -0.000350326125 -4.60414183e-07 4.39815629e-05 -0.000211766615 4.89393995e-06 6.05215967e-06 -1.01156449e-06 3.52541307e-07 4078.5946 33451.2641 14495.4552 
 0.0558290736 0.0558290736 0.979834963 2.48627797e-10 -0.000988653083 -1.57243893e-06 -0.000350326125 -4.60414183e-07 4.39815629e-05 -0.000211766615 4.89393995e-06 6.05215967e-06 -1.01156449e-06 3.52541307e-07 4078.5946 33451.2641 14495.4552 
 0 0.0558290736 0.979834963 2.48627797e-10 -0.000988653083 -1.57243893e-06 -0.000350326125 -4.60414183e-07 4.39815629e-05 -0.000211766615 4.89393995e-06 6.05215967e-06 -1.01156449e-06 3.52541307e-07 4078.5946 33451.2641 14495.4552 
 0 0 0.980623892 2.561156e-11 0.00116107289 2.96380082e-06 0.000417206375 7.06578353e-07 4.18347879e-05 0.000430653542 4.80585416e-06 1.08765449e-05 1.50985532e-06 3.0970353e-07 3975.3201 34792.7853 12433.5504 
 0.0558290736 0 0.980623892 2.561156e-11 0.00116107289 2.96380082e-06 0.000417206375 7.06578353e-07 4.18347879e-05 0.000430653542 4.80585416e-06 1.08765449e-05 1.50985532e-06 3.0970353e-07 3975.3201 34792.7853 12433.5504 
 0.0558290736 0.0558290736 0.980623892 2.561156e-11 0.00116107289 2.96380082e-06 0.000417206375 7.06578353e-07 4.18347879e-05 0.000430653542 4.80585416e-06 1.08765449e-05 1.50985532e-06 3.0970353e-07 3975.3201 34792.7853 12433.5504 
 0 0.0558290736 0.980623892 2.561156e-11 0.00116107289 2.96380082e-06 0.000417206375 7.06578353e-07 4.18347879e-05 0.000430653542 4.80585416e-06 1.08765449e-05 1.50985532e-06 3.0970353e-07 3975.3201 34792.7853 12433.5504 
 0 0 0.981347617 2.13786993e-10 -0.00101996513 -2.06124431e-06 -0.000360231423 -5.47825877e-07 3.20306416e-05 -0.000205972322 4.40233256e-06 1.31624794e-05 -1.06434379e-06 2.38722739e-07 3766.92374 38345.1946 14342.8619 
 0.0558290736 0 0.981347617 2.13786993e-10 -0.00101996513 -2.06124431e-06 -0.000360231423 -5.47825877e-07 3.20306416e-05 -0.000205972322 4.40233256e-06 1.31624794e-05 -1.06434379e-06 2.38722739e-07 3766.92374 38345.1946 14342.8619 
 0.0558290736 0.0558290736 0.981347617 2.13786993e-10 -0.00101996513 -2.06124431e-06 -0.000360231423 -5.47825877e-07 3.20306416e-05 -0.000205972322 4.40233256e-06 1.31624794e-05 -1.06434379e-06 2.38722739e-07 3766.92374 38345.1946 14342.8619 
 0 0.0558290736 0.981347617 2.13786993e-10 -0.00101996513 -2.06124431e-06 -0.000360231423 -5.47825877e-07 3.20306416e-05 -0.000205972322 4.40233256e-06 1.31624794e-05 -1.06434379e-06 2.38722739e-07 3766.92374 38345.1946 14342.8619 
 0 0 0.982072573 -2.04116506e-11 0.00112856687 2.61780937e-06 0.000405858851 6.44475789e-07 2.60578575e-05 0.000425052845 3.43661813e-06 1.72335239e-05 1.44648598e-06 1.82486453e-07 3304.49818 39746.8295 11961.2211 
 0.0558290736 0 0.982072573 -2.04116506e-11 0.00112856687 2.61780937e-06 0.000405858851 6.44475789e-07 2.60578575e-05 0.000425052845 3.43661813e-06 1.72335239e-05 1.44648598e-06 1.82486453e-07 3304.49818 39746.8295 11961.2211 
 0.0558290736 0.0558290736 0.982072573 -2.04116506e-11 0.00112856687 2.61780937e-06 0.000405858851 6.44475789e-07 2.60578575e-05 0.000425052845 3.43661813e-06 1.72335239e-05 1.44648598e-06 1.82486453e-07 3304.49818 39746.8295 11961.2211 
 0 0.0558290736 0.982072573 -2.04116506e-11 0.00112856687 2.61780937e-06 0.000405858851 6.44475789e-07 2.60578575e-05 0.000425052845 3.43661813e-06 1.72335239e-05 1.44648598e-06 1.82486453e-07 3304.49818 39746.8295 11961.2211 
 0 0 0.983064325 1.4427825e-10 -0.00105800043 -2.32073084e-06 -0.000374961666 -5.94145399e-07 1.11887671e-05 -0.00023479739 1.67529264e-06 1.62128469e-05 -1.15073649e-06 9.13709969e-08 2339.01313 43327.5095 13249.435 
 0.0558290736 0 0.983064325 1.4427825e-10 -0.00105800043 -2.32073084e-06 -0.000374961666 -5.94145399e-07 1.11887671e-05 -0.00023479739 1.67529264e-06 1.62128469e-05 -1.15073649e-06 9.13709969e-08 2339.01313 43327.5095 13249.435 
 0.0558290736 0.0558290736 0.983064325 1.4427825e-10 -0.00105800043 -2.32073084e-06 -0.000374961666 -5.94145399e-07 1.11887671e-05 -0.00023479739 1.67529264e-06 1.62128469e-05 -1.15073649e-06 9.13709969e-08 2339.01313 43327.5095 13249.435 
 0 0.0558290736 0.983064325 1.4427825e-10 -0.00105800043 -2.32073084e-06 -0.000374961666 -5.94145399e-07 1.11887671e-05 -0.00023479739 1.67529264e-06 1.62128469e-05 -1.15073649e-06 9.13709969e-08 2339.01313 43327.5095 13249.435 
 0 0 0.984476385 -9.44671821e-11 0.00109296604 2.45790254e-06 0.000390852437 6.16730826e-07 5.91391754e-06 0.000373113469 2.4663037e-07 1.38648307e-05 1.34735625e-06 4.68034781e-08 1208.52429 41565.6645 9546.99282 
 0.0558290736 0 0.984476385 -9.44671821e-11 0.00109296604 2.45790254e-06 0.000390852437 6.16730826e-07 5.91391754e-06 0.000373113469 2.4663037e-07 1.38648307e-05 1.34735625e-06 4.68034781e-08 1208.52429 41565.6645 9546.99282 
 0.0558290736 0.0558290736 0.984476385 -9.44671821e-11 0.00109296604 2.45790254e-06 0.000390852437 6.16730826e-07 5.91391754e-06 0.000373113469 2.4663037e-07 1.38648307e-05 1.34735625e-06 4.68034781e-08 1208.52429 41565.6645 9546.99282 
 0 0.0558290736 0.984476385 -9.44671821e-11 0.00109296604 2.45790254e-06 0.000390852437 6.16730826e-07 5.91391754e-06 0.000373113469 2.4663037e-07 1.38648307e-05 1.34735625e-06 4.68034781e-08 1208.52429 41565.6645 9546.99282 
 0 0 0.985162715 1.12377941e-10 -0.00107463347 -2.37746487e-06 -0.000382383751 -6.03502186e-07 2.04441444e-06 -0.00027277898 2.90767668e-07 1.07336954e-05 -1.209114e-06 2.78895173e-08 972.345686 39210.88 10394.5656 
 0.0558290736 0 0.985162715 1.12377941e-10 -0.00107463347 -2.37746487e-06 -0.000382383751 -6.03502186e-07 2.04441444e-06 -0.00027277898 2.90767668e-07 1.07336954e-05 -1.209114e-06 2.78895173e-08 972.345686 39210.88 10394.5656 
 0.0558290736 0.0558290736 0.985162715 1.12377941e-10 -0.00107463347 -2.37746487e-06 -0.000382383751 -6.03502186e-07 2.04441444e-06 -0.00027277898 2.90767668e-07 1.07336954e-05 -1.209114e-06 2.78895173e-08 972.345686 39210.88 10394.5656 
 0 0.0558290736 0.985162715 1.12377941e-10 -0.00107463347 -2.37746487e-06 -0.000382383751 -6.03502186e-07 2.04441444e-06 -0.00027277898 2.90767668e-07 1.07336954e-05 -1.209114e-06 2.78895173e-08 972.345686 39210.88 10394.5656 
 0 0 0.985681576 -1.01776399e-10 0.00108815998 2.44239845e-06 0.000388657868 6.14272862e-07 3.34878603e-06 0.000361854644 -5.36159954e-08 1.22139229e-05 1.32673212e-06 2.6819539e-08 747.548993 36582.9473 7601.20665 
 0.0558290736 0 0.985681576 -1.01776399e-10 0.00108815998 2.44239845e-06 0.000388657868 6.14272862e-07 3.34878603e-06 0.000361854644 -5.36159954e-08 1.22139229e-05 1.32673212e-06 2.6819539e-08 747.548993 36582.9473 7601.20665 
 0.0558290736 0.0558290736 0.985681576 -1.01776399e-10 0.00108815998 2.44239845e-06 0.000388657868 6.14272862e-07 3.34878603e-06 0.000361854644 -5.36159954e-08 1.22139229e-05 1.32673212e-06 2.6819539e-08 747.548993 36582.9473 7601.20665 
 0 0.0558290736 0.985681576 -1.01776399e-10 0.00108815998 2.44239845e-06 0.000388657868 6.14272862e-07 3.34878603e-06 0.000361854644 -5.36159954e-08 1.22139229e-05 1.32673212e-06 2.6819539e-08 747.548993 36582.9473 7601.20665 
 0 0 0.986131951 1.09016187e-10 -0.00107743636 -2.38762618e-06 -0.000383676686 -6.05096837e-07 6.12090029e-07 -0.00027960799 1.68297678e-07 9.66510032e-06 -1.22480766e-06 1.51486374e-08 675.556635 34072.9937 8686.57478 
 0.0558290736 0 0.986131951 1.09016187e-10 -0.00107743636 -2.38762618e-06 -0.000383676686 -6.05096837e-07 6.12090029e-07 -0.00027960799 1.68297678e-07 9.66510032e-06 -1.22480766e-06 1.51486374e-08 675.556635 34072.9937 8686.57478 
 0.0558290736 0.0558290736 0.986131951 1.09016187e-10 -0.00107743636 -2.38762618e-06 -0.000383676686 -6.05096837e-07 6.12090029e-07 -0.00027960799 1.68297678e-07 9.66510032e-06 -1.22480766e-06 1.51486374e-08 675.556635 34072.9937 8686.57478 
 0 0.0558290736 0.986131951 1.09016187e-10 -0.00107743636 -2.38762618e-06 -0.000383676686 -6.05096837e-07 6.12090029e-07 -0.00027960799 1.68297678e-07 9.66510032e-06 -1.22480766e-06 1.51486374e-08 675.556635 34072.9937 8686.57478 
 0 0 0.986529081 -1.03659316e-10 0.00108622091 2.43438436e-06 0.000387758333 6.13013073e-07 2.40299711e-06 0.000357017589 -1.10982199e-07 1.14129222e-05 1.313472e-06 1.75114163e-08 526.222046 31378.3646 6020.79357 
 0.0558290736 0 0.986529081 -1.03659316e-10 0.00108622091 2.43438436e-06 0.000387758333 6.13013073e-07 2.40299711e-06 0.000357017589 -1.10982199e-07 1.14129222e-05 1.313472e-06 1.75114163e-08 526.222046 31378.3646 6020.79357 
 0.0558290736 0.0558290736 0.986529081 -1.03659316e-10 0.00108622091 2.43438436e-06 0.000387758333 6.13013073e-07 2.40299711e-06 0.000357017589 -1.10982199e-07 1.14129222e-05 1.313472e-06 1.75114163e-08 526.222046 31378.3646 6020.79357 