 TITLE="parade results"
 VARIABLES="wavelength [A]"
 "emission coefficient [W/m3/str/m]"
 "absorption coefficient [1/m]"
 "conditional distribution [-]"
 ZONE I=       10000 , F=POINT
  2.0000000000E+02  1.0000000134E-10  1.0000000134E-10  0.0000000000E+00
  2.0001980591E+02  1.0000000134E-10  1.0000000134E-10  0.0000000000E+00
  2.0003961182E+02  1.0000000134E-10  1.0000000134E-10  0.0000000000E+00
  2.0005941772E+02  1.0000000134E-10  1.0000000134E-10  0.0000000000E+00
  2.0007923889E+02  1.0000000134E-10  1.0000000134E-10  0.0000000000E+00
  2.0009906006E+02  1.0000000134E-10  1.0000000134E-10  0.0000000000E+00
  2.0011888123E+02  1.0000000134E-10  1.0000000134E-10  0.0000000000E+00
  2.0013870239E+02  1.0000000134E-10  1.0000000134E-10  0.0000000000E+00
  2.0015853882E+02  1.0000000134E-10  1.0000000134E-10  0.0000000000E+00
  2.0017837524E+02  1.0000000134E-10  1.0000000134E-10  0.0000000000E+00
  2.0019821167E+02  1.0000000134E-10  1.0000000134E-10  0.0000000000E+00
  2.0021806335E+02  1.0000000134E-10  1.0000000134E-10  0.0000000000E+00
  2.0023789978E+02  1.0000000134E-10  1.0000000134E-10  0.0000000000E+00
  2.0025775146E+02  1.0000000134E-10  1.0000000134E-10  0.0000000000E+00
  2.0027761841E+02  1.0000000134E-10  1.0000000134E-10  0.0000000000E+00
  2.0029747009E+02  1.0000000134E-10  1.0000000134E-10  0.0000000000E+00
  2.0031733704E+02  1.0000000134E-10  1.0000000134E-10  0.0000000000E+00
  2.0033720398E+02  1.0000000134E-10  1.0000000134E-10  0.0000000000E+00
  2.0035707092E+02  1.0000000134E-10  1.0000000134E-10  0.0000000000E+00
  2.0037695312E+02  1.0000000134E-10  1.0000000134E-10  0.0000000000E+00
  2.0039682007E+02  1.0000000134E-10  1.0000000134E-10  0.0000000000E+00
  2.0041670227E+02  1.0000000134E-10  1.0000000134E-10  0.0000000000E+00
  2.0043659973E+02  1.0000000134E-10  1.0000000134E-10  0.0000000000E+00
  2.0045648193E+02  1.0000000134E-10  1.0000000134E-10  0.0000000000E+00
  2.0047637939E+02  1.0000000134E-10  1.0000000134E-10  0.0000000000E+00
  2.0049627686E+02  1.0000000134E-10  1.0000000134E-10  0.0000000000E+00
  2.0051617432E+02  1.0000000134E-10  1.0000000134E-10  0.0000000000E+00
  2.0053608704E+02  1.0000000134E-10  1.0000000134E-10  0.0000000000E+00
  2.0055599976E+02  1.0000000134E-10  1.0000000134E-10  0.0000000000E+00
  2.0057591248E+02  1.0000000134E-10  1.0000000134E-10  0.0000000000E+00
  2.0059582520E+02  1.0000000134E-10  1.0000000134E-10  0.0000000000E+00
  2.0061575317E+02  1.0000000134E-10  1.0000000134E-10  0.0000000000E+00
  2.0063568115E+02  1.0000000134E-10  1.0000000134E-10  0.0000000000E+00
  2.0065560913E+02  1.0000000134E-10  1.0000000134E-10  0.0000000000E+00
  2.0067553711E+02  1.0000000134E-10  1.0000000134E-10  0.0000000000E+00
  2.0069548035E+02  1.0000000134E-10  1.0000000134E-10  0.0000000000E+00
  2.0071542358E+02  1.0000000134E-10  1.0000000134E-10  0.0000000000E+00
  2.0073536682E+02  1.0000000134E-10  1.0000000134E-10  0.0000000000E+00
  2.0075531006E+02  1.0000000134E-10  1.0000000134E-10  0.0000000000E+00
  2.0077526855E+02  1.0000000134E-10  1.0000000134E-10  0.0000000000E+00
  2.0079522705E+02  1.0000000134E-10  1.0000000134E-10  0.0000000000E+00
  2.0081518555E+02  1.0000000134E-10  1.0000000134E-10  0.0000000000E+00
  2.0083515930E+02  1.0000000134E-10  1.0000000134E-10  0.0000000000E+00
  2.0085513306E+02  1.0000000134E-10  1.0000000134E-10  0.0000000000E+00
  2.0087510681E+02  1.0000000134E-10  1.0000000134E-10  0.0000000000E+00
  2.0089508057E+02  1.0000000134E-10  1.0000000134E-10  0.0000000000E+00
  2.0091505432E+02  1.0000000134E-10  1.0000000134E-10  0.0000000000E+00
  2.0093504333E+02  1.0000000134E-10  1.0000000134E-10  0.0000000000E+00
  2.0095503235E+02  1.0000000134E-10  1.0000000134E-10  0.0000000000E+00
  2.0097502136E+02  1.0000000134E-10  1.0000000134E-10  0.0000000000E+00
  2.0099502563E+02  1.0000000134E-10  1.0000000134E-10  0.0000000000E+00
  2.0101502991E+02  1.0000000134E-10  1.0000000134E-10  0.0000000000E+00
  2.0103503418E+02  1.0000000134E-10  1.0000000134E-10  0.0000000000E+00
  2.0105503845E+02  1.0000000134E-10  1.0000000134E-10  0.0000000000E+00
  2.0107505798E+02  1.0000000134E-10  1.0000000134E-10  0.0000000000E+00
  2.0109507751E+02  1.0000000134E-10  1.0000000134E-10  0.0000000000E+00
  2.0111509705E+02  1.0000000134E-10  1.0000000134E-10  0.0000000000E+00
  2.0113511658E+02  1.0000000134E-10  1.0000000134E-10  0.0000000000E+00
  2.0115515137E+02  1.0000000134E-10  1.0000000134E-10  0.0000000000E+00
  2.0117518616E+02  1.0000000134E-10  1.0000000134E-10  0.0000000000E+00
  2.0119522095E+02  1.0000000134E-10  1.0000000134E-10  0.0000000000E+00
  2.0121525574E+02  1.0000000134E-10  1.0000000134E-10  0.0000000000E+00
  2.0123530579E+02  1.0000000134E-10  1.0000000134E-10  0.0000000000E+00
  2.0125535583E+02  1.0000000134E-10  1.0000000134E-10  0.0000000000E+00
  2.0127540588E+02  1.0000000134E-10  1.0000000134E-10  0.0000000000E+00
  2.0129547119E+02  1.0000000134E-10  1.0000000134E-10  0.0000000000E+00
  2.0131552124E+02  1.0000000134E-10  1.0000000134E-10  0.0000000000E+00
  2.0133558655E+02  1.0000000134E-10  1.0000000134E-10  0.0000000000E+00
  2.0135566711E+02  1.0000000134E-10  1.0000000134E-10  0.0000000000E+00
  2.0137573242E+02  1.0000000134E-10  1.0000000134E-10  0.0000000000E+00
  2.0139581299E+02  1.0000000134E-10  1.0000000134E-10  0.0000000000E+00
  2.0141589355E+02  1.0000000134E-10  1.0000000134E-10  0.0000000000E+00
  2.0143597412E+02  1.0000000134E-10  1.0000000134E-10  0.0000000000E+00
  2.0145606995E+02  1.0000000134E-10  1.0000000134E-10  0.0000000000E+00
  2.0147616577E+02  1.0000000134E-10  1.0000000134E-10  0.0000000000E+00
  2.0149626160E+02  1.0000000134E-10  1.0000000134E-10  0.0000000000E+00
  2.0151635742E+02  1.0000000134E-10  1.0000000134E-10  0.0000000000E+00
  2.0153646851E+02  1.0000000134E-10  1.0000000134E-10  0.0000000000E+00
  2.0155657959E+02  1.0000000134E-10  1.0000000134E-10  0.0000000000E+00
  2.0157669067E+02  1.0000000134E-10  1.0000000134E-10  0.0000000000E+00
  2.0159680176E+02  1.0000000134E-10  1.0000000134E-10  0.0000000000E+00
  2.0161692810E+02  1.0000000134E-10  1.0000000134E-10  0.0000000000E+00
  2.0163705444E+02  1.0000000134E-10  1.0000000134E-10  0.0000000000E+00
  2.0165718079E+02  1.0000000134E-10  1.0000000134E-10  0.0000000000E+00
  2.0167732239E+02  1.0000000134E-10  1.0000000134E-10  0.0000000000E+00
  2.0169744873E+02  1.0000000134E-10  1.0000000134E-10  0.0000000000E+00
  2.0171759033E+02  1.0000000134E-10  1.0000000134E-10  0.0000000000E+00
  2.0173774719E+02  1.0000000134E-10  1.0000000134E-10  0.0000000000E+00
  2.0175788879E+02  1.0000000134E-10  1.0000000134E-10  0.0000000000E+00
  2.0177804565E+02  1.0000000134E-10  1.0000000134E-10  0.0000000000E+00
  2.0179820251E+02  1.0000000134E-10  1.0000000134E-10  0.0000000000E+00
  2.0181835938E+02  1.0000000134E-10  1.0000000134E-10  0.0000000000E+00
  2.0183853149E+02  1.0000000134E-10  1.0000000134E-10  0.0000000000E+00
  2.0185870361E+02  1.0000000134E-10  1.0000000134E-10  0.0000000000E+00
  2.0187887573E+02  1.0000000134E-10  1.0000000134E-10  0.0000000000E+00
  2.0189904785E+02  1.0000000134E-10  1.0000000134E-10  0.0000000000E+00
  2.0191923523E+02  1.0000000134E-10  1.0000000134E-10  0.0000000000E+00
  2.0193942261E+02  1.0000000134E-10  1.0000000134E-10  0.0000000000E+00
  2.0195960999E+02  1.0000000134E-10  1.0000000134E-10  0.0000000000E+00
  2.0197979736E+02  1.0000000134E-10  1.0000000134E-10  0.0000000000E+00
  2.0200000000E+02  1.0000000134E-10  1.0000000134E-10  0.0000000000E+00
  2.0202020264E+02  1.0000000134E-10  1.0000000134E-10  0.0000000000E+00
  2.0204040527E+02  1.0000000134E-10  1.0000000134E-10  0.0000000000E+00
  2.0206062317E+02  1.0000000134E-10  1.0000000134E-10  0.0000000000E+00
  2.0208082581E+02  1.0000000134E-10  1.0000000134E-10  0.0000000000E+00
  2.0210104370E+02  1.0000000134E-10  1.0000000134E-10  0.0000000000E+00
  2.0212127686E+02  1.0000000134E-10  1.0000000134E-10  0.0000000000E+00
  2.0214149475E+02  1.0000000134E-10  1.0000000134E-10  0.0000000000E+00
  2.0216172791E+02  1.0000000134E-10  1.0000000134E-10  0.0000000000E+00
  2.0218196106E+02  1.0000000134E-10  1.0000000134E-10  0.0000000000E+00
  2.0220220947E+02  1.0000000134E-10  1.0000000134E-10  0.0000000000E+00
  2.0222244263E+02  1.0000000134E-10  1.0000000134E-10  0.0000000000E+00
  2.0224269104E+02  1.0000000134E-10  1.0000000134E-10  0.0000000000E+00
  2.0226293945E+02  1.0000000134E-10  1.0000000134E-10  0.0000000000E+00
  2.0228320312E+02  1.0000000134E-10  1.0000000134E-10  0.0000000000E+00
  2.0230345154E+02  1.0000000134E-10  1.0000000134E-10  0.0000000000E+00
  2.0232371521E+02  1.0000000134E-10  1.0000000134E-10  0.0000000000E+00
  2.0234397888E+02  1.0000000134E-10  1.0000000134E-10  0.0000000000E+00
  2.0236425781E+02  1.0000000134E-10  1.0000000134E-10  0.0000000000E+00
  2.0238453674E+02  1.0000000134E-10  1.0000000134E-10  0.0000000000E+00
  2.0240481567E+02  1.0000000134E-10  1.0000000134E-10  0.0000000000E+00
  2.0242509460E+02  1.0000000134E-10  1.0000000134E-10  0.0000000000E+00
  2.0244537354E+02  1.0000000134E-10  1.0000000134E-10  0.0000000000E+00
  2.0246566772E+02  1.0000000134E-10  1.0000000134E-10  0.0000000000E+00
  2.0248596191E+02  1.0000000134E-10  1.0000000134E-10  0.0000000000E+00
  2.0250627136E+02  1.0000000134E-10  1.0000000134E-10  0.0000000000E+00
  2.0252656555E+02  1.0000000134E-10  1.0000000134E-10  0.0000000000E+00
  2.0254687500E+02  1.0000000134E-10  1.0000000134E-10  0.0000000000E+00
  2.0256718445E+02  1.0000000134E-10  1.0000000134E-10  0.0000000000E+00
  2.0258750916E+02  1.0000000134E-10  1.0000000134E-10  0.0000000000E+00
  2.0260781860E+02  1.0000000134E-10  1.0000000134E-10  0.0000000000E+00
  2.0262814331E+02  1.0000000134E-10  1.0000000134E-10  0.0000000000E+00
  2.0264846802E+02  1.0000000134E-10  1.0000000134E-10  0.0000000000E+00
  2.0266880798E+02  1.0000000134E-10  1.0000000134E-10  0.0000000000E+00
  2.0268914795E+02  1.0000000134E-10  1.0000000134E-10  0.0000000000E+00
  2.0270948792E+02  1.0000000134E-10  1.0000000134E-10  0.0000000000E+00
  2.0272982788E+02  1.0000000134E-10  1.0000000134E-10  0.0000000000E+00
  2.0275018311E+02  1.0000000134E-10  1.0000000134E-10  0.0000000000E+00
  2.0277052307E+02  1.0000000134E-10  1.0000000134E-10  0.0000000000E+00
  2.0279087830E+02  1.0000000134E-10  1.0000000134E-10  0.0000000000E+00
  2.0281124878E+02  1.0000000134E-10  1.0000000134E-10  0.0000000000E+00
  2.0283160400E+02  1.0000000134E-10  1.0000000134E-10  0.0000000000E+00
  2.0285197449E+02  1.0000000134E-10  1.0000000134E-10  0.0000000000E+00
  2.0287234497E+02  1.0000000134E-10  1.0000000134E-10  0.0000000000E+00
  2.0289273071E+02  1.0000000134E-10  1.0000000134E-10  0.0000000000E+00
  2.0291311646E+02  1.0000000134E-10  1.0000000134E-10  0.0000000000E+00
  2.0293348694E+02  1.0000000134E-10  1.0000000134E-10  0.0000000000E+00
  2.0295388794E+02  1.0000000134E-10  1.0000000134E-10  0.0000000000E+00
  2.0297427368E+02  1.0000000134E-10  1.0000000134E-10  0.0000000000E+00
  2.0299467468E+02  1.0000000134E-10  1.0000000134E-10  0.0000000000E+00
  2.0301507568E+02  1.0000000134E-10  1.0000000134E-10  0.0000000000E+00
  2.0303547668E+02  1.0000000134E-10  1.0000000134E-10  0.0000000000E+00
  2.0305589294E+02  1.0000000134E-10  1.0000000134E-10  0.0000000000E+00
  2.0307630920E+02  1.0000000134E-10  1.0000000134E-10  0.0000000000E+00
  2.0309672546E+02  1.0000000134E-10  1.0000000134E-10  0.0000000000E+00
  2.0311714172E+02  1.0000000134E-10  1.0000000134E-10  0.0000000000E+00
  2.0313757324E+02  1.0000000134E-10  1.0000000134E-10  0.0000000000E+00
  2.0315800476E+02  1.0000000134E-10  1.0000000134E-10  0.0000000000E+00
  2.0317843628E+02  1.0000000134E-10  1.0000000134E-10  0.0000000000E+00
  2.0319886780E+02  1.0000000134E-10  1.0000000134E-10  0.0000000000E+00
  2.0321931458E+02  1.0000000134E-10  1.0000000134E-10  0.0000000000E+00
  2.0323976135E+02  1.0000000134E-10  1.0000000134E-10  0.0000000000E+00
  2.0326020813E+02  1.0000000134E-10  1.0000000134E-10  0.0000000000E+00
  2.0328067017E+02  1.0000000134E-10  1.0000000134E-10  0.0000000000E+00
  2.0330113220E+02  1.0000000134E-10  1.0000000134E-10  0.0000000000E+00
  2.0332159424E+02  1.0000000134E-10  1.0000000134E-10  0.0000000000E+00
  2.0334205627E+02  1.0000000134E-10  1.0000000134E-10  0.0000000000E+00
  2.0336253357E+02  1.0000000134E-10  1.0000000134E-10  0.0000000000E+00
  2.0338301086E+02  1.0000000134E-10  1.0000000134E-10  0.0000000000E+00
  2.0340348816E+02  1.0000000134E-10  1.0000000134E-10  0.0000000000E+00
  2.0342396545E+02  1.0000000134E-10  1.0000000134E-10  0.0000000000E+00
  2.0344445801E+02  1.0000000134E-10  1.0000000134E-10  0.0000000000E+00
  2.0346495056E+02  1.0000000134E-10  1.0000000134E-10  0.0000000000E+00
  2.0348544312E+02  1.0000000134E-10  1.0000000134E-10  0.0000000000E+00
  2.0350595093E+02  1.0000000134E-10  1.0000000134E-10  0.0000000000E+00
  2.0352644348E+02  1.0000000134E-10  1.0000000134E-10  0.0000000000E+00
  2.0354695129E+02  1.0000000134E-10  1.0000000134E-10  0.0000000000E+00
  2.0356747437E+02  1.0000000134E-10  1.0000000134E-10  0.0000000000E+00
  2.0358798218E+02  1.0000000134E-10  1.0000000134E-10  0.0000000000E+00
  2.0360850525E+02  1.0000000134E-10  1.0000000134E-10  0.0000000000E+00
  2.0362902832E+02  1.0000000134E-10  1.0000000134E-10  0.0000000000E+00
  2.0364956665E+02  1.0000000134E-10  1.0000000134E-10  0.0000000000E+00
  2.0367008972E+02  1.0000000134E-10  1.0000000134E-10  0.0000000000E+00
  2.0369062805E+02  1.0000000134E-10  1.0000000134E-10  0.0000000000E+00
  2.0371116638E+02  1.0000000134E-10  1.0000000134E-10  0.0000000000E+00
  2.0373171997E+02  1.0000000134E-10  1.0000000134E-10  0.0000000000E+00
  2.0375227356E+02  1.0000000134E-10  1.0000000134E-10  0.0000000000E+00
  2.0377282715E+02  1.0000000134E-10  1.0000000134E-10  0.0000000000E+00
  2.0379338074E+02  1.0000000134E-10  1.0000000134E-10  0.0000000000E+00
  2.0381394958E+02  1.0000000134E-10  1.0000000134E-10  0.0000000000E+00
  2.0383450317E+02  1.0000000134E-10  1.0000000134E-10  0.0000000000E+00
  2.0385508728E+02  1.0000000134E-10  1.0000000134E-10  0.0000000000E+00
  2.0387565613E+02  1.0000000134E-10  1.0000000134E-10  0.0000000000E+00
  2.0389624023E+02  1.0000000134E-10  1.0000000134E-10  0.0000000000E+00
  2.0391682434E+02  1.0000000134E-10  1.0000000134E-10  0.0000000000E+00
  2.0393740845E+02  1.0000000134E-10  1.0000000134E-10  0.0000000000E+00
  2.0395799255E+02  1.0000000134E-10  1.0000000134E-10  0.0000000000E+00
  2.0397859192E+02  1.0000000134E-10  1.0000000134E-10  0.0000000000E+00
  2.0399919128E+02  1.0000000134E-10  1.0000000134E-10  0.0000000000E+00
  2.0401979065E+02  1.0000000134E-10  1.0000000134E-10  0.0000000000E+00
  2.0404040527E+02  1.0000000134E-10  1.0000000134E-10  0.0000000000E+00
  2.0406101990E+02  1.0000000134E-10  1.0000000134E-10  0.0000000000E+00
  2.0408163452E+02  1.0000000134E-10  1.0000000134E-10  0.0000000000E+00
  2.0410224915E+02  1.0000000134E-10  1.0000000134E-10  0.0000000000E+00
  2.0412287903E+02  1.0000000134E-10  1.0000000134E-10  0.0000000000E+00
  2.0414350891E+02  1.0000000134E-10  1.0000000134E-10  0.0000000000E+00
  2.0416413879E+02  1.0000000134E-10  1.0000000134E-10  0.0000000000E+00
  2.0418478394E+02  1.0000000134E-10  1.0000000134E-10  0.0000000000E+00
  2.0420541382E+02  1.0000000134E-10  1.0000000134E-10  0.0000000000E+00
  2.0422605896E+02  1.0000000134E-10  1.0000000134E-10  0.0000000000E+00
  2.0424671936E+02  1.0000000134E-10  1.0000000134E-10  0.0000000000E+00
  2.0426736450E+02  1.0000000134E-10  1.0000000134E-10  0.0000000000E+00
  2.0428802490E+02  1.0000000134E-10  1.0000000134E-10  0.0000000000E+00
  2.0430868530E+02  1.0000000134E-10  1.0000000134E-10  0.0000000000E+00
  2.0432936096E+02  1.0000000134E-10  1.0000000134E-10  0.0000000000E+00
  2.0435002136E+02  1.0000000134E-10  1.0000000134E-10  0.0000000000E+00
  2.0437069702E+02  1.0000000134E-10  1.0000000134E-10  0.0000000000E+00
  2.0439137268E+02  1.0000000134E-10  1.0000000134E-10  0.0000000000E+00
  2.0441206360E+02  1.0000000134E-10  1.0000000134E-10  0.0000000000E+00
  2.0443275452E+02  1.0000000134E-10  1.0000000134E-10  0.0000000000E+00
  2.0445344543E+02  1.0000000134E-10  1.0000000134E-10  0.0000000000E+00
  2.0447413635E+02  1.0000000134E-10  1.0000000134E-10  0.0000000000E+00
  2.0449484253E+02  1.0000000134E-10  1.0000000134E-10  0.0000000000E+00
  2.0451554871E+02  1.0000000134E-10  1.0000000134E-10  0.0000000000E+00
  2.0453625488E+02  1.0000000134E-10  1.0000000134E-10  0.0000000000E+00
  2.0455696106E+02  1.0000000134E-10  1.0000000134E-10  0.0000000000E+00
  2.0457768250E+02  1.0000000134E-10  1.0000000134E-10  0.0000000000E+00
  2.0459840393E+02  1.0000000134E-10  1.0000000134E-10  0.0000000000E+00
  2.0461912537E+02  1.0000000134E-10  1.0000000134E-10  0.0000000000E+00
  2.0463984680E+02  1.0000000134E-10  1.0000000134E-10  0.0000000000E+00
  2.0466058350E+02  1.0000000134E-10  1.0000000134E-10  0.0000000000E+00
  2.0468132019E+02  1.0000000134E-10  1.0000000134E-10  0.0000000000E+00
  2.0470207214E+02  1.0000000134E-10  1.0000000134E-10  0.0000000000E+00
  2.0472280884E+02  1.0000000134E-10  1.0000000134E-10  0.0000000000E+00
  2.0474356079E+02  1.0000000134E-10  1.0000000134E-10  0.0000000000E+00
  2.0476431274E+02  1.0000000134E-10  1.0000000134E-10  0.0000000000E+00
  2.0478507996E+02  1.0000000134E-10  1.0000000134E-10  0.0000000000E+00
  2.0480584717E+02  1.0000000134E-10  1.0000000134E-10  0.0000000000E+00
  2.0482661438E+02  1.0000000134E-10  1.0000000134E-10  0.0000000000E+00
  2.0484738159E+02  1.0000000134E-10  1.0000000134E-10  0.0000000000E+00
  2.0486814880E+02  1.0000000134E-10  1.0000000134E-10  0.0000000000E+00
  2.0488893127E+02  1.0000000134E-10  1.0000000134E-10  0.0000000000E+00
  2.0490971375E+02  1.0000000134E-10  1.0000000134E-10  0.0000000000E+00
  2.0493051147E+02  1.0000000134E-10  1.0000000134E-10  0.0000000000E+00
  2.0495129395E+02  1.0000000134E-10  1.0000000134E-10  0.0000000000E+00
  2.0497209167E+02  1.0000000134E-10  1.0000000134E-10  0.0000000000E+00
  2.0499288940E+02  1.0000000134E-10  1.0000000134E-10  0.0000000000E+00
  2.0501370239E+02  1.0000000134E-10  1.0000000134E-10  0.0000000000E+00
  2.0503451538E+02  1.0000000134E-10  1.0000000134E-10  0.0000000000E+00
  2.0505532837E+02  1.0000000134E-10  1.0000000134E-10  0.0000000000E+00
  2.0507614136E+02  1.0000000134E-10  1.0000000134E-10  0.0000000000E+00
  2.0509696960E+02  1.0000000134E-10  1.0000000134E-10  0.0000000000E+00
  2.0511779785E+02  1.0000000134E-10  1.0000000134E-10  0.0000000000E+00
  2.0513862610E+02  1.0000000134E-10  1.0000000134E-10  0.0000000000E+00
  2.0515945435E+02  1.0000000134E-10  1.0000000134E-10  0.0000000000E+00
  2.0518029785E+02  1.0000000134E-10  1.0000000134E-10  0.0000000000E+00
  2.0520114136E+02  1.0000000134E-10  1.0000000134E-10  0.0000000000E+00
  2.0522198486E+02  1.0000000134E-10  1.0000000134E-10  0.0000000000E+00
  2.0524284363E+02  1.0000000134E-10  1.0000000134E-10  0.0000000000E+00
  2.0526368713E+02  1.0000000134E-10  1.0000000134E-10  0.0000000000E+00
  2.0528454590E+02  1.0000000134E-10  1.0000000134E-10  0.0000000000E+00
  2.0530541992E+02  1.0000000134E-10  1.0000000134E-10  0.0000000000E+00
  2.0532627869E+02  1.0000000134E-10  1.0000000134E-10  0.0000000000E+00
  2.0534715271E+02  1.0000000134E-10  1.0000000134E-10  0.0000000000E+00
  2.0536804199E+02  1.0000000134E-10  1.0000000134E-10  0.0000000000E+00
  2.0538891602E+02  1.0000000134E-10  1.0000000134E-10  0.0000000000E+00
  2.0540980530E+02  1.0000000134E-10  1.0000000134E-10  0.0000000000E+00
  2.0543069458E+02  1.0000000134E-10  1.0000000134E-10  0.0000000000E+00
  2.0545158386E+02  1.0000000134E-10  1.0000000134E-10  0.0000000000E+00
  2.0547248840E+02  1.0000000134E-10  1.0000000134E-10  0.0000000000E+00
  2.0549339294E+02  1.0000000134E-10  1.0000000134E-10  0.0000000000E+00
  2.0551429749E+02  1.0000000134E-10  1.0000000134E-10  0.0000000000E+00
  2.0553520203E+02  1.0000000134E-10  1.0000000134E-10  0.0000000000E+00
  2.0555612183E+02  1.0000000134E-10  1.0000000134E-10  0.0000000000E+00
  2.0557704163E+02  1.0000000134E-10  1.0000000134E-10  0.0000000000E+00
  2.0559796143E+02  1.0000000134E-10  1.0000000134E-10  0.0000000000E+00
  2.0561889648E+02  1.0000000134E-10  1.0000000134E-10  0.0000000000E+00
  2.0563983154E+02  1.0000000134E-10  1.0000000134E-10  0.0000000000E+00
  2.0566076660E+02  1.0000000134E-10  1.0000000134E-10  0.0000000000E+00
  2.0568170166E+02  1.0000000134E-10  1.0000000134E-10  0.0000000000E+00
  2.0570265198E+02  1.0000000134E-10  1.0000000134E-10  0.0000000000E+00
  2.0572360229E+02  1.0000000134E-10  1.0000000134E-10  0.0000000000E+00
  2.0574455261E+02  1.0000000134E-10  1.0000000134E-10  0.0000000000E+00
  2.0576550293E+02  1.0000000134E-10  1.0000000134E-10  0.0000000000E+00
  2.0578646851E+02  1.0000000134E-10  1.0000000134E-10  0.0000000000E+00
  2.0580743408E+02  1.0000000134E-10  1.0000000134E-10  0.0000000000E+00
  2.0582841492E+02  1.0000000134E-10  1.0000000134E-10  0.0000000000E+00
  2.0584938049E+02  1.0000000134E-10  1.0000000134E-10  0.0000000000E+00
  2.0587036133E+02  1.0000000134E-10  1.0000000134E-10  0.0000000000E+00
  2.0589134216E+02  1.0000000134E-10  1.0000000134E-10  0.0000000000E+00
  2.0591233826E+02  1.0000000134E-10  1.0000000134E-10  0.0000000000E+00
  2.0593331909E+02  1.0000000134E-10  1.0000000134E-10  0.0000000000E+00
  2.0595433044E+02  1.0000000134E-10  1.0000000134E-10  0.0000000000E+00
  2.0597532654E+02  1.0000000134E-10  1.0000000134E-10  0.0000000000E+00
  2.0599632263E+02  1.0000000134E-10  1.0000000134E-10  0.0000000000E+00
  2.0601733398E+02  1.0000000134E-10  1.0000000134E-10  0.0000000000E+00
  2.0603834534E+02  1.0000000134E-10  1.0000000134E-10  0.0000000000E+00
  2.0605937195E+02  1.0000000134E-10  1.0000000134E-10  0.0000000000E+00
  2.0608039856E+02  1.0000000134E-10  1.0000000134E-10  0.0000000000E+00
  2.0610142517E+02  1.0000000134E-10  1.0000000134E-10  0.0000000000E+00
  2.0612245178E+02  1.0000000134E-10  1.0000000134E-10  0.0000000000E+00
  2.0614347839E+02  1.0000000134E-10  1.0000000134E-10  0.0000000000E+00
  2.0616452026E+02  1.0000000134E-10  1.0000000134E-10  0.0000000000E+00
  2.0618556213E+02  1.0000000134E-10  1.0000000134E-10  0.0000000000E+00
  2.0620661926E+02  1.0000000134E-10  1.0000000134E-10  0.0000000000E+00
  2.0622766113E+02  1.0000000134E-10  1.0000000134E-10  0.0000000000E+00
  2.0624871826E+02  1.0000000134E-10  1.0000000134E-10  0.0000000000E+00
  2.0626979065E+02  1.0000000134E-10  1.0000000134E-10  0.0000000000E+00
  2.0629084778E+02  1.0000000134E-10  1.0000000134E-10  0.0000000000E+00
  2.0631192017E+02  1.0000000134E-10  1.0000000134E-10  0.0000000000E+00
  2.0633299255E+02  1.0000000134E-10  1.0000000134E-10  0.0000000000E+00
  2.0635406494E+02  1.0000000134E-10  1.0000000134E-10  0.0000000000E+00
  2.0637515259E+02  1.0000000134E-10  1.0000000134E-10  0.0000000000E+00
  2.0639624023E+02  1.0000000134E-10  1.0000000134E-10  0.0000000000E+00
  2.0641732788E+02  1.0000000134E-10  1.0000000134E-10  0.0000000000E+00
  2.0643843079E+02  1.0000000134E-10  1.0000000134E-10  0.0000000000E+00
  2.0645951843E+02  1.0000000134E-10  1.0000000134E-10  0.0000000000E+00
  2.0648063660E+02  1.0000000134E-10  1.0000000134E-10  0.0000000000E+00
  2.0650173950E+02  1.0000000134E-10  1.0000000134E-10  0.0000000000E+00
  2.0652285767E+02  1.0000000134E-10  1.0000000134E-10  0.0000000000E+00
  2.0654396057E+02  1.0000000134E-10  1.0000000134E-10  0.0000000000E+00
  2.0656509399E+02  1.0000000134E-10  1.0000000134E-10  0.0000000000E+00
  2.0658621216E+02  1.0000000134E-10  1.0000000134E-10  0.0000000000E+00
  2.0660734558E+02  1.0000000134E-10  1.0000000134E-10  0.0000000000E+00
  2.0662847900E+02  1.0000000134E-10  1.0000000134E-10  0.0000000000E+00
  2.0664961243E+02  1.0000000134E-10  1.0000000134E-10  0.0000000000E+00
  2.0667076111E+02  1.0000000134E-10  1.0000000134E-10  0.0000000000E+00
  2.0669190979E+02  1.0000000134E-10  1.0000000134E-10  0.0000000000E+00
  2.0671305847E+02  1.0000000134E-10  1.0000000134E-10  0.0000000000E+00
  2.0673420715E+02  1.0000000134E-10  1.0000000134E-10  0.0000000000E+00
  2.0675537109E+02  1.0000000134E-10  1.0000000134E-10  0.0000000000E+00
  2.0677653503E+02  1.0000000134E-10  1.0000000134E-10  0.0000000000E+00
  2.0679771423E+02  1.0000000134E-10  1.0000000134E-10  0.0000000000E+00
  2.0681887817E+02  1.0000000134E-10  1.0000000134E-10  0.0000000000E+00
  2.0684005737E+02  1.0000000134E-10  1.0000000134E-10  0.0000000000E+00
  2.0686123657E+02  1.0000000134E-10  1.0000000134E-10  0.0000000000E+00
  2.0688243103E+02  1.0000000134E-10  1.0000000134E-10  0.0000000000E+00
  2.0690361023E+02  1.0000000134E-10  1.0000000134E-10  0.0000000000E+00
  2.0692480469E+02  1.0000000134E-10  1.0000000134E-10  0.0000000000E+00
  2.0694601440E+02  1.0000000134E-10  1.0000000134E-10  0.0000000000E+00
  2.0696720886E+02  1.0000000134E-10  1.0000000134E-10  0.0000000000E+00
  2.0698841858E+02  1.0000000134E-10  1.0000000134E-10  0.0000000000E+00
  2.0700962830E+02  1.0000000134E-10  1.0000000134E-10  0.0000000000E+00
  2.0703085327E+02  1.0000000134E-10  1.0000000134E-10  0.0000000000E+00
  2.0705206299E+02  1.0000000134E-10  1.0000000134E-10  0.0000000000E+00
  2.0707330322E+02  1.0000000134E-10  1.0000000134E-10  0.0000000000E+00
  2.0709452820E+02  1.0000000134E-10  1.0000000134E-10  0.0000000000E+00
  2.0711575317E+02  1.0000000134E-10  1.0000000134E-10  0.0000000000E+00
  2.0713699341E+02  1.0000000134E-10  1.0000000134E-10  0.0000000000E+00
  2.0715823364E+02  1.0000000134E-10  1.0000000134E-10  0.0000000000E+00
  2.0717948914E+02  1.0000000134E-10  1.0000000134E-10  0.0000000000E+00
  2.0720074463E+02  1.0000000134E-10  1.0000000134E-10  0.0000000000E+00
  2.0722200012E+02  1.0000000134E-10  1.0000000134E-10  0.0000000000E+00
  2.0724325562E+02  1.0000000134E-10  1.0000000134E-10  0.0000000000E+00
  2.0726452637E+02  1.0000000134E-10  1.0000000134E-10  0.0000000000E+00
  2.0728578186E+02  1.0000000134E-10  1.0000000134E-10  0.0000000000E+00
  2.0730706787E+02  1.0000000134E-10  1.0000000134E-10  0.0000000000E+00
  2.0732833862E+02  1.0000000134E-10  1.0000000134E-10  0.0000000000E+00
  2.0734962463E+02  1.0000000134E-10  1.0000000134E-10  0.0000000000E+00
  2.0737091064E+02  1.0000000134E-10  1.0000000134E-10  0.0000000000E+00
  2.0739219666E+02  1.0000000134E-10  1.0000000134E-10  0.0000000000E+00
  2.0741349792E+02  1.0000000134E-10  1.0000000134E-10  0.0000000000E+00
  2.0743478394E+02  1.0000000134E-10  1.0000000134E-10  0.0000000000E+00
  2.0745610046E+02  1.0000000134E-10  1.0000000134E-10  0.0000000000E+00
  2.0747740173E+02  1.0000000134E-10  1.0000000134E-10  0.0000000000E+00
  2.0749871826E+02  1.0000000134E-10  1.0000000134E-10  0.0000000000E+00
  2.0752003479E+02  1.0000000134E-10  1.0000000134E-10  0.0000000000E+00
  2.0754135132E+02  1.0000000134E-10  1.0000000134E-10  0.0000000000E+00
  2.0756268311E+02  1.0000000134E-10  1.0000000134E-10  0.0000000000E+00
  2.0758401489E+02  1.0000000134E-10  1.0000000134E-10  0.0000000000E+00
  2.0760534668E+02  1.0000000134E-10  1.0000000134E-10  0.0000000000E+00
  2.0762667847E+02  1.0000000134E-10  1.0000000134E-10  0.0000000000E+00
  2.0764802551E+02  1.0000000134E-10  1.0000000134E-10  0.0000000000E+00
  2.0766937256E+02  1.0000000134E-10  1.0000000134E-10  0.0000000000E+00
  2.0769071960E+02  1.0000000134E-10  1.0000000134E-10  0.0000000000E+00
  2.0771208191E+02  1.0000000134E-10  1.0000000134E-10  0.0000000000E+00
  2.0773344421E+02  1.0000000134E-10  1.0000000134E-10  0.0000000000E+00
  2.0775480652E+02  1.0000000134E-10  1.0000000134E-10  0.0000000000E+00
  2.0777618408E+02  1.0000000134E-10  1.0000000134E-10  0.0000000000E+00
  2.0779754639E+02  1.0000000134E-10  1.0000000134E-10  0.0000000000E+00
  2.0781892395E+02  1.0000000134E-10  1.0000000134E-10  0.0000000000E+00
  2.0784031677E+02  1.0000000134E-10  1.0000000134E-10  0.0000000000E+00
  2.0786169434E+02  1.0000000134E-10  1.0000000134E-10  0.0000000000E+00
  2.0788308716E+02  1.0000000134E-10  1.0000000134E-10  0.0000000000E+00
  2.0790447998E+02  1.0000000134E-10  1.0000000134E-10  0.0000000000E+00
  2.0792588806E+02  1.0000000134E-10  1.0000000134E-10  0.0000000000E+00
  2.0794729614E+02  1.0000000134E-10  1.0000000134E-10  0.0000000000E+00
  2.0796870422E+02  1.0000000134E-10  1.0000000134E-10  0.0000000000E+00
  2.0799011230E+02  1.0000000134E-10  1.0000000134E-10  0.0000000000E+00
  2.0801153564E+02  1.0000000134E-10  1.0000000134E-10  0.0000000000E+00
  2.0803295898E+02  1.0000000134E-10  1.0000000134E-10  0.0000000000E+00
  2.0805438232E+02  1.0000000134E-10  1.0000000134E-10  0.0000000000E+00
  2.0807582092E+02  1.0000000134E-10  1.0000000134E-10  0.0000000000E+00
  2.0809724426E+02  1.0000000134E-10  1.0000000134E-10  0.0000000000E+00
  2.0811868286E+02  1.0000000134E-10  1.0000000134E-10  0.0000000000E+00
  2.0814013672E+02  1.0000000134E-10  1.0000000134E-10  0.0000000000E+00
  2.0816157532E+02  1.0000000134E-10  1.0000000134E-10  0.0000000000E+00
  2.0818302917E+02  1.0000000134E-10  1.0000000134E-10  0.0000000000E+00
  2.0820449829E+02  1.0000000134E-10  1.0000000134E-10  0.0000000000E+00
  2.0822595215E+02  1.0000000134E-10  1.0000000134E-10  0.0000000000E+00
  2.0824742126E+02  1.0000000134E-10  1.0000000134E-10  0.0000000000E+00
  2.0826889038E+02  1.0000000134E-10  1.0000000134E-10  0.0000000000E+00
  2.0829037476E+02  1.0000000134E-10  1.0000000134E-10  0.0000000000E+00
  2.0831184387E+02  1.0000000134E-10  1.0000000134E-10  0.0000000000E+00
  2.0833332825E+02  1.0000000134E-10  1.0000000134E-10  0.0000000000E+00
  2.0835482788E+02  1.0000000134E-10  1.0000000134E-10  0.0000000000E+00
  2.0837631226E+02  1.0000000134E-10  1.0000000134E-10  0.0000000000E+00
  2.0839781189E+02  1.0000000134E-10  1.0000000134E-10  0.0000000000E+00