 TITLE="parade results"
 VARIABLES="wavelength [A]"
 "emission coefficient [W/m3/str/m]"
 "absorption coefficient [1/m]"
 "conditional distribution [-]"
 ZONE I=         1000 , F=POINT
  4.1160000000E+03  1.0553228564E+15  1.0124029736E+01  0.0000000000E+00
  4.1161147348E+03  4.6087803195E+15  4.4204292960E+01  3.3109024434E-03
  4.1162294760E+03  8.6585079923E+14  8.3062525215E+00  6.1217847205E-03
  4.1163442236E+03  8.6975669140E+13  8.3443497483E-01  6.4828272569E-03
  4.1164589776E+03  5.4555469325E+14  5.2338693648E+00  6.7523631396E-03
  4.1165737380E+03  6.3318035543E+14  6.0747974859E+00  7.3336670016E-03
  4.1166885048E+03  5.5845779466E+14  5.3558015370E+00  7.9292767435E-03
  4.1168032780E+03  1.1731726714E+14  1.1253678509E+00  8.0438278381E-03
  4.1169180576E+03  2.3108382262E+15  2.2159085822E+01  9.5591871876E-03
  4.1170328436E+03  2.1556027888E+14  2.0677589217E+00  1.0871227686E-02
  4.1171476360E+03  1.1929339310E+13  1.1442941757E-01  1.0920259207E-02
  4.1172624348E+03  5.5071746277E+14  5.2844461285E+00  1.1254249807E-02
  4.1173772400E+03  3.2045753438E+14  3.0749955539E+00  1.1692113487E-02
  4.1174920516E+03  4.0564705746E+14  3.8924705700E+00  1.2029789363E-02
  4.1176068696E+03  1.1112169778E+15  1.0662031256E+01  1.2774449114E-02
  4.1177216940E+03  1.6558041962E+15  1.5884880435E+01  1.4130148733E-02
  4.1178365248E+03  1.9265623927E+15  1.8481643631E+01  1.5853069958E-02
  4.1179513621E+03  2.2534798991E+15  2.1615455172E+01  1.7933195996E-02
  4.1180662057E+03  1.8032362098E+15  1.7289260307E+01  1.9953421437E-02
  4.1181810557E+03  5.4286209853E+14  5.2095052648E+00  2.1024632868E-02
  4.1182959121E+03  4.2290804997E+13  4.0576516359E-01  2.1268129995E-02
  4.1184107750E+03  2.7880998320E+13  2.6748126840E-01  2.1301975834E-02
  4.1185256442E+03  3.5513690059E+14  3.4082264639E+00  2.1502010714E-02
  4.1186405199E+03  4.8685217504E+14  4.6722977328E+00  2.1898704133E-02
  4.1187554020E+03  7.3421357059E+14  7.0438386123E+00  2.2561030426E-02
  4.1188702904E+03  6.9133742005E+13  6.6317126259E-01  2.2640660423E-02
  4.1189851853E+03  3.2381348934E+15  3.1061962768E+01  2.4726920993E-02
  4.1191000866E+03  3.1842799048E+14  3.0557114186E+00  2.6573637087E-02
  4.1192149943E+03  2.7824169208E+14  2.6702038699E+00  2.6861540100E-02
  4.1193299085E+03  2.3324511443E+15  2.2381592457E+01  2.8404130753E-02
  4.1194448290E+03  9.1317430076E+14  8.7629732907E+00  3.0079109641E-02
  4.1195597559E+03  2.3436600676E+14  2.2487675225E+00  3.0496365475E-02
  4.1196746893E+03  1.2704187665E+15  1.2187677393E+01  3.1180112258E-02
  4.1197896290E+03  1.6288948014E+15  1.5628725110E+01  3.2701491306E-02
  4.1199045752E+03  4.9844438310E+14  4.7840468289E+00  3.3652351537E-02
  4.1200195278E+03  3.1757204810E+14  3.0481026840E+00  3.4040700063E-02
  4.1201344868E+03  2.0633072659E+14  1.9785042059E+00  3.4272465345E-02
  4.1202494523E+03  3.5523821706E+14  3.4091080396E+00  3.4533336834E-02
  4.1203644241E+03  2.6165926913E+15  2.5100336975E+01  3.6337574625E-02
  4.1204794024E+03  3.6586533908E+14  3.5117134550E+00  3.7864909120E-02
  4.1205943870E+03  4.4181521575E+14  4.2410621657E+00  3.8242290530E-02
  4.1207093781E+03  6.7282522114E+14  6.4578252046E+00  3.8783672049E-02
  4.1208243757E+03  8.6338494078E+14  8.2839728267E+00  3.9485614318E-02
  4.1209393796E+03  1.5401122558E+15  1.4778949557E+01  4.0573592644E-02
  4.1210543899E+03  3.1386322708E+15  3.0113884960E+01  4.3178209767E-02
  4.1211694067E+03  5.2864944096E+14  5.0746637688E+00  4.5035214566E-02
  4.1212844299E+03  3.1801267721E+13  3.0526106384E-01  4.5241930884E-02
  4.1213994595E+03  3.4603057877E+14  3.3213449915E+00  4.5317596994E-02
  4.1215144955E+03  2.4198291964E+15  2.3219172796E+01  4.6986693597E-02
  4.1216295380E+03  3.4451187095E+14  3.3070492865E+00  4.8352955974E-02
  4.1217445869E+03  1.6356172062E+15  1.5701289142E+01  4.9290782192E-02
  4.1218596422E+03  2.5965820679E+13  2.4935150900E-01  5.0137362704E-02
  4.1219747039E+03  2.1772123494E+14  2.0899492168E+00  5.0249478595E-02
  4.1220897720E+03  4.7886258690E+14  4.5968790928E+00  5.0630243769E-02
  4.1222048466E+03  1.8978066600E+14  1.8219906738E+00  5.0932118110E-02
  4.1223199276E+03  9.7543745184E+14  9.3648139351E+00  5.1477270461E-02
  4.1224350150E+03  1.9850603641E+15  1.9052272187E+01  5.3068514387E-02
  4.1225501089E+03  9.7959050740E+14  9.3994581172E+00  5.4519936055E-02
  4.1226652092E+03  1.5336147834E+15  1.4712169079E+01  5.5752959896E-02
  4.1227803159E+03  6.9189545134E+13  6.6418562017E-01  5.6311552318E-02
  4.1228954290E+03  1.2136719179E+15  1.1650060870E+01  5.6828158957E-02
  4.1230105486E+03  2.3547447562E+15  2.2594952251E+01  5.8760975628E-02
  4.1231256745E+03  8.9043541557E+14  8.5470944942E+00  6.0326410925E-02
  4.1232408070E+03  2.1173435528E+15  2.0320967449E+01  6.1779626046E-02
  4.1233559458E+03  6.7498546397E+14  6.4781562448E+00  6.3149879293E-02
  4.1234710911E+03  1.3903617604E+15  1.3349700954E+01  6.4132099357E-02
  4.1235862428E+03  3.5941496942E+14  3.4508672344E+00  6.5013054835E-02
  4.1237014009E+03  2.1370501302E+14  2.0520761567E+00  6.5286125867E-02
  4.1238165655E+03  1.1794802329E+14  1.1325312444E+00  6.5446511684E-02
  4.1239317365E+03  1.7846322286E+15  1.7132883732E+01  6.6594571522E-02
  4.1240469140E+03  6.0121754311E+14  5.7728195656E+00  6.7810749142E-02
  4.1241620978E+03  7.4686039002E+14  7.1704237559E+00  6.8530926561E-02
  4.1242772881E+03  3.4492912216E+13  3.3117854157E-01  6.8773342029E-02
  4.1243924849E+03  1.0259478173E+15  9.8510424769E+00  6.9288772005E-02
  4.1245076881E+03  2.5126230956E+14  2.4125281090E+00  6.9920367938E-02
  4.1246228977E+03  9.1510913975E+14  8.7879805802E+00  7.0462474880E-02
  4.1247381137E+03  6.9085251079E+14  6.6320058229E+00  7.1274033512E-02
  4.1248533362E+03  2.3154899626E+15  2.2220059514E+01  7.2816498482E-02
  4.1249685651E+03  2.8553432030E+15  2.7404210641E+01  7.5374419794E-02
  4.1250838005E+03  2.7149311018E+15  2.6059542787E+01  7.8097655046E-02
  4.1251990423E+03  1.3889057691E+14  1.3337735831E+00  7.9248548115E-02
  4.1253142905E+03  4.9623493557E+14  4.7650594413E+00  7.9509800096E-02
  4.1254295452E+03  1.4254099495E+15  1.3685934804E+01  8.0617141904E-02
  4.1255448063E+03  1.5459498142E+14  1.4843679170E+00  8.1361943260E-02
  4.1256600739E+03  1.5704503044E+15  1.5080554462E+01  8.2161175661E-02
  4.1257753479E+03  1.1930755640E+15  1.1458350764E+01  8.3591403759E-02
  4.1258906283E+03  2.9830994911E+14  2.8650719197E+00  8.4242048120E-02
  4.1260059152E+03  2.6757211046E+14  2.5699554622E+00  8.4515996614E-02
  4.1261212086E+03  9.6911568520E+14  9.3075938560E+00  8.5248581462E-02
  4.1262365083E+03  5.3618517551E+13  5.1498285832E-01  8.5767325633E-02
  4.1263518146E+03  1.5107447922E+14  1.4511096242E+00  8.5860111338E-02
  4.1264671272E+03  3.2433793253E+14  3.1152636948E+00  8.6128419765E-02
  4.1265824463E+03  2.0569096544E+13  1.9749985442E-01  8.6314682866E-02
  4.1266977719E+03  1.8637947140E+15  1.7893910121E+01  8.7428500748E-02
  4.1268131039E+03  1.2309187219E+15  1.1819110583E+01  8.9026863651E-02
  4.1269284423E+03  4.7100522932E+15  4.5227834015E+01  9.2329432667E-02
  4.1270437872E+03  2.9848516598E+15  2.8650084523E+01  9.6249082296E-02
  4.1271591386E+03  1.5827212701E+15  1.5195159026E+01  9.8467209910E-02
  4.1272744963E+03  1.1126706162E+14  1.0686999080E+00  9.9122429738E-02
  4.1273898606E+03  6.9669867873E+14  6.6917056655E+00  9.9468235596E-02
  4.1275052313E+03  3.8138672985E+14  3.6637108428E+00  1.0002584460E-01
  4.1276206084E+03  1.1291607385E+14  1.0846846163E+00  1.0025212740E-01
  4.1277359920E+03  7.4179104457E+12  7.1244953111E-02  1.0029677323E-01
  4.1278513820E+03  7.5138304667E+13  7.2184684051E-01  1.0032957528E-01
  4.1279667785E+03  7.5784557513E+14  7.2803024845E+00  1.0078824604E-01
  4.1280821815E+03  7.4884488113E+14  7.1935599627E+00  1.0151838244E-01
  4.1281975909E+03  1.4869242670E+15  1.4283578488E+01  1.0271823411E-01
  4.1283130067E+03  7.8985483904E+14  7.5861492719E+00  1.0376699549E-01
  4.1284284290E+03  2.9177171960E+15  2.8019090294E+01  1.0592660781E-01
  4.1285438578E+03  6.6653738537E+14  6.4010571130E+00  1.0770986409E-01
  4.1286592930E+03  1.6793939207E+15  1.6132430612E+01  1.0882172035E-01
  4.1287747346E+03  6.4758628338E+13  6.2195032017E-01  1.0962257804E-01
  4.1288901828E+03  2.1849823714E+15  2.0977112898E+01  1.1069339206E-01
  4.1290056373E+03  1.0657654642E+15  1.0235669785E+01  1.1236489979E-01
  4.1291210984E+03  8.2817640695E+14  7.9569930872E+00  1.1322481091E-01
  4.1292365659E+03  1.3275071872E+15  1.2744878976E+01  1.1424426768E-01
  4.1293520398E+03  1.7235995425E+15  1.6550248625E+01  1.1585389449E-01
  4.1294675202E+03  5.1788663895E+14  4.9750889081E+00  1.1688197398E-01
  4.1295830071E+03  2.4382911571E+13  2.3411448076E-01  1.1706319644E-01
  4.1296985004E+03  5.6223516918E+14  5.4020212450E+00  1.1727172816E-01
  4.1298140002E+03  1.9033227682E+15  1.8284119725E+01  1.1869483197E-01
  4.1299295065E+03  3.7000155536E+14  3.5547879920E+00  1.1975809498E-01
  4.1300450192E+03  2.6990816860E+15  2.5926405578E+01  1.2121150878E-01
  4.1301605384E+03  2.0451024469E+15  1.9646581950E+01  1.2368350430E-01
  4.1302760640E+03  2.3508458973E+14  2.2583165216E+00  1.2466157554E-01
  4.1303915961E+03  1.7815861005E+13  1.7115583442E-01  1.2474572225E-01
  4.1305071347E+03  2.8704601412E+14  2.7579734065E+00  1.2486238978E-01
  4.1306226797E+03  8.4255526280E+14  8.0957130048E+00  1.2548062953E-01
  4.1307382312E+03  5.4651417072E+14  5.2512812961E+00  1.2618910573E-01
  4.1308537891E+03  2.8381136948E+15  2.7253895193E+01  1.2822810766E-01
  4.1309693536E+03  3.7216904205E+14  3.5760276485E+00  1.2983380617E-01
  4.1310849244E+03  1.4472409792E+15  1.3907317050E+01  1.3059063730E-01
  4.1312005018E+03  2.0728428042E+15  1.9916491465E+01  1.3251090959E-01
  4.1313160856E+03  3.9561937444E+13  3.8004201300E-01  1.3323500672E-01
  4.1314316759E+03  1.7067583227E+15  1.6387613355E+01  1.3402670235E-01
  4.1315472727E+03  1.0358868403E+15  9.9483261578E+00  1.3542200935E-01
  4.1316628759E+03  1.1156123654E+15  1.0717200031E+01  1.3646642706E-01
  4.1317784856E+03  2.5805177168E+15  2.4794000377E+01  1.3852958021E-01
  4.1318941018E+03  6.3099798655E+14  6.0616464295E+00  1.4015081836E-01
  4.1320097244E+03  6.1626114940E+14  5.9229383518E+00  1.4075638598E-01
  4.1321253535E+03  1.0440331596E+15  1.0033801654E+01  1.4161393694E-01
  4.1322409891E+03  8.3394984025E+14  8.0145663643E+00  1.4257464648E-01
  4.1323566311E+03  3.0599168876E+13  2.9394126214E-01  1.4292430495E-01
  4.1324722797E+03  8.9892769507E+13  8.6374230749E-01  1.4298281914E-01
  4.1325879347E+03  1.3844347363E+15  1.3302917509E+01  1.4373681613E-01
  4.1327035961E+03  2.2180948102E+15  2.1305022351E+01  1.4559763609E-01
  4.1328192641E+03  1.6422252488E+15  1.5778354368E+01  1.4749418860E-01
  4.1329349385E+03  1.9476502743E+15  1.8718647742E+01  1.4920204970E-01
  4.1330506194E+03  4.3013907915E+14  4.1345363555E+00  1.5022976842E-01
  4.1331663068E+03  5.0240205577E+14  4.8290927851E+00  1.5068278806E-01
  4.1332820006E+03  1.1554457959E+15  1.1101549927E+01  1.5149434305E-01
  4.1333977010E+03  1.7322539497E+15  1.6645498347E+01  1.5301892393E-01
  4.1335134078E+03  8.1353356905E+14  7.8162597217E+00  1.5423821123E-01
  4.1336291210E+03  1.8360026107E+15  1.7630410455E+01  1.5553356571E-01
  4.1337448408E+03  7.2449672210E+14  6.9628377713E+00  1.5678085271E-01
  4.1338605670E+03  1.6722990745E+15  1.6073746031E+01  1.5791777900E-01
  4.1339762998E+03  1.2595658184E+15  1.2105888399E+01  1.5939069972E-01
  4.1340920390E+03  1.0116579759E+15  9.7247551918E+00  1.6050852103E-01
  4.1342077846E+03  5.9237649117E+14  5.6932518604E+00  1.6127495956E-01
  4.1343235368E+03  3.3075919180E+14  3.1789348926E+00  1.6171931916E-01
  4.1344392954E+03  1.2444178814E+14  1.1959917739E+00  1.6194058772E-01
  4.1345550606E+03  2.1465727431E+15  2.0624972776E+01  1.6322912972E-01
  4.1346708322E+03  1.8896088610E+15  1.8156769630E+01  1.6524377296E-01
  4.1347866103E+03  9.8578494589E+14  9.4766100806E+00  1.6648574420E-01
  4.1349023949E+03  2.0199862191E+15  1.9411563962E+01  1.6795850647E-01
  4.1350181859E+03  8.3537325773E+14  8.0302233223E+00  1.6936129931E-01
  4.1351339835E+03  1.5214632012E+15  1.4623633091E+01  1.7046545109E-01
  4.1352497875E+03  1.3792859898E+15  1.3257447923E+01  1.7190975490E-01
  4.1353655980E+03  3.6049994068E+13  3.4651885854E-01  1.7247823615E-01
  4.1354814150E+03  1.5696158059E+14  1.5089615925E+00  1.7257210441E-01
  4.1355972385E+03  2.4281371773E+15  2.3343476258E+01  1.7405705486E-01
  4.1357130685E+03  1.8632128267E+15  1.7900588490E+01  1.7628180479E-01
  4.1358289050E+03  7.8769141755E+14  7.5668523962E+00  1.7748603326E-01
  4.1359447479E+03  7.3728912259E+14  7.0884902724E+00  1.7822785068E-01
  4.1360605974E+03  1.2873347342E+14  1.2373932233E+00  1.7855206602E-01
  4.1361764533E+03  6.8344160384E+14  6.5708609775E+00  1.7894595285E-01
  4.1362923158E+03  1.0614605141E+14  1.0204446756E+00  1.7924543533E-01
  4.1364081847E+03  2.6766885760E+15  2.5723830307E+01  1.8063682054E-01
  4.1365240601E+03  4.7727762080E+15  4.5875406769E+01  1.8475389671E-01
  4.1366399420E+03  7.9519813049E+14  7.6441660092E+00  1.8752720459E-01
  4.1367558304E+03  1.3553571383E+15  1.3030217665E+01  1.8864970061E-01
  4.1368717253E+03  9.7273003970E+14  9.3519665363E+00  1.8983260270E-01
  4.1369876267E+03  3.1101329314E+14  2.9902083226E+00  1.9042804877E-01
  4.1371035346E+03  2.1543828655E+13  2.0714731371E-01  1.9046354911E-01
  4.1372194489E+03  1.2743732484E+15  1.2254325222E+01  1.9127470368E-01
  4.1373353698E+03  2.7584169349E+14  2.6523861015E+00  1.9206498798E-01
  4.1374512972E+03  6.7290931033E+14  6.4711544040E+00  1.9250503537E-01
  4.1375672310E+03  2.2497806425E+14  2.1633983612E+00  1.9294046858E-01
  4.1376831714E+03  6.6378721856E+14  6.3834195359E+00  1.9326577512E-01
  4.1377991183E+03  2.7866877497E+15  2.6786610577E+01  1.9524658481E-01
  4.1379150716E+03  1.1453728848E+15  1.1005645617E+01  1.9717978219E-01
  4.1380310315E+03  2.8111315405E+15  2.7024057150E+01  1.9912384048E-01
  4.1381469978E+03  7.3467620346E+14  7.0634793766E+00  2.0075783240E-01
  4.1382629707E+03  4.6576534587E+15  4.4774458200E+01  2.0345829633E-01
  4.1383789500E+03  6.8962261162E+14  6.6281156110E+00  2.0622339661E-01
  4.1384949359E+03  6.8147056364E+14  6.5534710620E+00  2.0689117919E-01
  4.1386109283E+03  1.7223772891E+14  1.6563781997E+00  2.0721213493E-01
  4.1387269271E+03  8.4718083348E+14  8.1481031952E+00  2.0770132882E-01
  4.1388429325E+03  5.2018244494E+14  5.0028071786E+00  2.0840833007E-01
  4.1389589444E+03  1.8790907439E+14  1.8070090107E+00  2.0875327907E-01
  4.1390749627E+03  1.9904470023E+15  1.9141842296E+01  2.1010391627E-01
  4.1391909876E+03  1.7592214534E+14  1.6920124530E+00  2.1119801751E-01
  4.1393070190E+03  1.0191797727E+15  9.8025055736E+00  2.1170712436E-01
  4.1394230569E+03  1.0187410851E+15  9.7969050941E+00  2.1270012654E-01
  4.1395391013E+03  2.5012751605E+15  2.4050594830E+01  2.1472851020E-01
  4.1396551522E+03  2.0269394897E+14  1.9491092635E+00  2.1605024459E-01
  4.1397712096E+03  1.5853362105E+15  1.5245487731E+01  2.1680167194E-01
  4.1398872735E+03  2.1860335015E+15  2.1015060943E+01  2.1868768459E-01
  4.1400033439E+03  2.1969312789E+15  2.1116979910E+01  2.2082393728E-01
  4.1401194208E+03  1.7154971869E+15  1.6492551679E+01  2.2265525413E-01
  4.1402355043E+03  2.1728513966E+15  2.0895997079E+01  2.2458956618E-01
  4.1403515942E+03  7.6073600277E+14  7.3161772094E+00  2.2596483330E-01
  4.1404676907E+03  3.5511770032E+13  3.4155306877E-01  2.2627075473E-01
  4.1405837937E+03  3.3173349639E+14  3.1911176458E+00  2.2635698593E-01
  4.1406999031E+03  1.9311374481E+15  1.8575201499E+01  2.2768482174E-01
  4.1408160191E+03  8.7353958676E+14  8.4032320688E+00  2.2911598161E-01
  4.1409321416E+03  8.5911515223E+14  8.2644741516E+00  2.2996085477E-01
  4.1410482707E+03  1.8869752748E+15  1.8145002115E+01  2.3149157652E-01
  4.1411644062E+03  5.0215216793E+14  4.8303486334E+00  2.3268337255E-01
  4.1412805482E+03  8.6301786924E+14  8.2994717052E+00  2.3329202505E-01
  4.1413966968E+03  8.5854104620E+14  8.2593003477E+00  2.3413167605E-01
  4.1415128519E+03  1.8068947882E+15  1.7381271855E+01  2.3560663214E-01
  4.1416290135E+03  6.6432784048E+14  6.3914215188E+00  2.3682482358E-01
  4.1417451816E+03  1.2903001716E+15  1.2409722057E+01  2.3767495532E-01
  4.1418613562E+03  2.6339097967E+15  2.5327215483E+01  2.3970536062E-01
  4.1419775374E+03  2.5530044860E+15  2.4541633652E+01  2.4223586913E-01
  4.1420937250E+03  1.2972640367E+15  1.2479538921E+01  2.4402216858E-01
  4.1422099192E+03  1.1708079070E+15  1.1261861738E+01  2.4528053988E-01
  4.1423261199E+03  3.7601757459E+14  3.6177997308E+00  2.4592368086E-01
  4.1424423271E+03  9.3295513168E+14  8.9732907771E+00  2.4650904347E-01
  4.1425585409E+03  1.4444079222E+15  1.3892706918E+01  2.4767566991E-01
  4.1426747611E+03  1.8755385263E+15  1.8043380299E+01  2.4933363582E-01
  4.1427909879E+03  1.8400160101E+15  1.7701661941E+01  2.5114703300E-01
  4.1429072212E+03  3.7154894776E+14  3.5751457953E+00  2.5203069025E-01
  4.1430234610E+03  1.2680640659E+15  1.2200646528E+01  2.5279882757E-01
  4.1431397074E+03  5.8602598370E+14  5.6377576624E+00  2.5375650383E-01
  4.1432559603E+03  1.4978623778E+14  1.4409569616E+00  2.5403997733E-01
  4.1433722197E+03  6.4801776920E+14  6.2357502796E+00  2.5435572908E-01
  4.1434884856E+03  2.0131464649E+15  1.9367919175E+01  2.5576481990E-01
  4.1436047580E+03  2.0627256490E+15  1.9837714936E+01  2.5775485365E-01
  4.1437210370E+03  7.0631969171E+14  6.7946639259E+00  2.5891202243E-01
  4.1438373225E+03  1.7626504094E+15  1.6957233528E+01  2.5999853574E-01
  4.1439536145E+03  3.3712602650E+15  3.2427508898E+01  2.6282124085E-01
  4.1440699131E+03  1.1309208324E+15  1.0872964334E+01  2.6505319311E-01
  4.1441862182E+03  1.9219686330E+15  1.8492054221E+01  2.6646491313E-01
  4.1443025298E+03  1.6536147994E+15  1.5908002996E+01  2.6825628396E-01
  4.1444188479E+03  1.3542663336E+15  1.3032750124E+01  2.6978131522E-01
  4.1445351726E+03  3.7208668733E+14  3.5811617826E+00  2.7057258152E-01
  4.1446515038E+03  3.8409284030E+13  3.6962674140E-01  2.7066151280E-01
  4.1447678415E+03  1.0539846299E+15  1.0143927465E+01  2.7131193003E-01
  4.1448841858E+03  5.8462568057E+14  5.6259214525E+00  2.7211528532E-01
  4.1450005366E+03  1.5335737175E+15  1.4758819874E+01  2.7318532826E-01
  4.1451168939E+03  1.7515759742E+14  1.6856259886E+00  2.7396004818E-01
  4.1452332577E+03  2.6085551554E+15  2.5094978173E+01  2.7519715204E-01
  4.1453496281E+03  4.1727054854E+15  4.0147658729E+01  2.7886009981E-01
  4.1454660051E+03  1.4204094575E+15  1.3668024731E+01  2.8167145002E-01
  4.1455823885E+03  1.0558437073E+15  1.0160149284E+01  2.8286272365E-01
  4.1456987785E+03  9.2756580107E+14  8.9242199238E+00  2.8388931163E-01
  4.1458151750E+03  1.1111846950E+14  1.0695271789E+00  2.8420636569E-01
  4.1459315781E+03  1.6429027939E+15  1.5812318303E+01  2.8494208287E-01
  4.1460479877E+03  3.8372549373E+15  3.6917349328E+01  2.8809156390E-01
  4.1461644039E+03  4.2663800803E+14  4.1065562136E+00  2.9025641363E-01
  4.1462808265E+03  6.0727398280E+14  5.8416986889E+00  2.9073684703E-01
  4.1463972558E+03  1.0945292764E+15  1.0535689510E+01  2.9155120900E-01
  4.1465136915E+03  1.7984015432E+15  1.7309652203E+01  2.9314325606E-01
  4.1466301338E+03  2.8282172626E+14  2.7223002134E+00  2.9409338770E-01
  4.1467465826E+03  2.6297864933E+15  2.5308074161E+01  2.9550644431E-01
  4.1468630380E+03  1.3864295971E+15  1.3345496680E+01  2.9750781773E-01
  4.1469794999E+03  2.8328558287E+15  2.7255887153E+01  2.9952763196E-01
  4.1470959684E+03  2.6696761808E+15  2.5694551096E+01  3.0227552052E-01
  4.1472124434E+03  1.7852004478E+15  1.7181251564E+01  3.0452243487E-01
  4.1473289249E+03  8.7770253125E+13  8.4457401715E-01  3.0526941821E-01
  4.1474454130E+03  4.6012893121E+14  4.4298590352E+00  3.0545354783E-01
  4.1475619077E+03  3.2145416086E+15  3.0945168597E+01  3.0766853804E-01
  4.1476784088E+03  8.7908620028E+14  8.4627417901E+00  3.0980475184E-01
  4.1477949165E+03  3.6830155346E+14  3.5459721634E+00  3.1031107407E-01
  4.1479114308E+03  1.1700900474E+15  1.1263184489E+01  3.1097287899E-01
  4.1480279516E+03  2.8216160295E+15  2.7149405661E+01  3.1304963271E-01
  4.1481444790E+03  2.9428490790E+15  2.8325419297E+01  3.1587028789E-01
  4.1482610129E+03  1.3516141644E+15  1.3009614954E+01  3.1781916287E-01
  4.1483775533E+03  1.6671096780E+15  1.6049837651E+01  3.1925851527E-01
  4.1484941003E+03  2.4383461517E+15  2.3474086100E+01  3.2123736968E-01
  4.1486106539E+03  3.5904790494E+15  3.4554074212E+01  3.2448491699E-01
  4.1487272140E+03  1.1459581035E+15  1.1032551700E+01  3.2683943097E-01
  4.1488437807E+03  1.4206864964E+15  1.3678733444E+01  3.2811560041E-01
  4.1489603539E+03  1.4476759175E+15  1.3935592345E+01  3.2951969325E-01
  4.1490769336E+03  1.7933603272E+15  1.7267837091E+01  3.3111873575E-01
  4.1491935199E+03  1.9870074981E+15  1.9131973850E+01  3.3304419557E-01
  4.1493101128E+03  1.2681577686E+15  1.2211666650E+01  3.3447442078E-01
  4.1494267122E+03  2.4940002770E+15  2.4009504326E+01  3.3633368662E-01
  4.1495433181E+03  1.3478090166E+15  1.2978463336E+01  3.3820386450E-01
  4.1496599306E+03  2.8419356129E+15  2.7365256933E+01  3.4020164531E-01
  4.1497765497E+03  3.0497286518E+15  2.9363608317E+01  3.4311823262E-01
  4.1498931753E+03  2.8761082904E+15  2.7687431530E+01  3.4603636488E-01
  4.1500098075E+03  3.8966668336E+15  3.7517770737E+01  3.4960871466E-01
  4.1501264463E+03  1.7571635278E+15  1.6921949982E+01  3.5233043262E-01
  4.1502430916E+03  3.9612350085E+15  3.8129513708E+01  3.5514368357E-01
  4.1503597434E+03  1.5186283509E+15  1.4622447016E+01  3.5794384479E-01
  4.1504764018E+03  8.7331060317E+14  8.4096534367E+00  3.5885732479E-01
  4.1505930668E+03  3.3755459256E+15  3.2501596517E+01  3.6130891480E-01
  4.1507097383E+03  1.4709608591E+15  1.4161553558E+01  3.6376212572E-01
  4.1508264164E+03  1.9881902154E+15  1.9145177457E+01  3.6543967073E-01
  4.1509431010E+03  5.0748245258E+14  4.8877297615E+00  3.6637174820E-01
  4.1510597922E+03  2.5549773647E+15  2.4606028979E+01  3.6781970998E-01
  4.1511764900E+03  2.3458493322E+15  2.2588505670E+01  3.7027729306E-01
  4.1512931943E+03  1.4472849979E+15  1.3939975952E+01  3.7214360330E-01
  4.1514099052E+03  4.5721989641E+14  4.4038863224E+00  3.7287624775E-01
  4.1515266227E+03  1.9189768007E+15  1.8482753854E+01  3.7394556096E-01
  4.1516433467E+03  3.2670407583E+15  3.1465543476E+01  3.7671821506E-01
  4.1517600773E+03  1.7535672552E+15  1.6889898122E+01  3.7906560707E-01
  4.1518768144E+03  5.8431089461E+15  5.6248816333E+01  3.8333577912E-01
  4.1519935581E+03  3.2733017449E+15  3.1525348180E+01  3.8789428714E-01
  4.1521103084E+03  5.1337532355E+15  4.9446318552E+01  3.9200670571E-01
  4.1522270652E+03  2.7903584407E+15  2.6867204374E+01  3.9605206606E-01
  4.1523438286E+03  7.7509417579E+14  7.4652390861E+00  3.9752916440E-01
  4.1524605986E+03  2.0885498293E+15  2.0113653980E+01  3.9886778708E-01
  4.1525773752E+03  1.7005898733E+15  1.6379534549E+01  4.0079987670E-01
  4.1526941583E+03  1.2055543528E+15  1.1613157248E+01  4.0207982166E-01
  4.1528109479E+03  2.4668840865E+15  2.3763312910E+01  4.0395435266E-01
  4.1529277442E+03  2.0794235759E+14  2.0029895724E+00  4.0529028237E-01
  4.1530445470E+03  8.7486765581E+14  8.4263235944E+00  4.0576322545E-01
  4.1531613564E+03  2.9276132038E+13  2.8195427631E-01  4.0615516440E-01
  4.1532781724E+03  1.9654217011E+15  1.8927640054E+01  4.0711124711E-01
  4.1533949949E+03  1.6797331760E+15  1.6177053479E+01  4.0878148459E-01
  4.1535118240E+03  2.8102993318E+15  2.7059473700E+01  4.1124401074E-01
  4.1536286597E+03  7.1716622303E+14  6.9068677390E+00  4.1293620941E-01
  4.1537455019E+03  2.7699709052E+15  2.6665361135E+01  4.1458093176E-01
  4.1538623507E+03  2.2829577457E+15  2.1985719330E+01  4.1721043024E-01
  4.1539792061E+03  6.3710828201E+14  6.1371309330E+00  4.1853337990E-01
  4.1540960681E+03  3.6231580944E+14  3.4874692786E+00  4.1899318262E-01
  4.1542129366E+03  4.5746053832E+14  4.4052484756E+00  4.1938041486E-01
  4.1543298118E+03  2.2676741998E+15  2.1845316213E+01  4.2101472056E-01
  4.1544466935E+03  5.0148759390E+14  4.8310331624E+00  4.2240473104E-01
  4.1545635817E+03  1.5513275744E+15  1.4940568139E+01  4.2338854680E-01
  4.1546804766E+03  3.6914900725E+14  3.5563958318E+00  4.2432153224E-01
  4.1547973780E+03  1.6555081347E+15  1.5949390862E+01  4.2527301173E-01
  4.1549142860E+03  1.5025059252E+15  1.4472064709E+01  4.2682333195E-01
  4.1550312006E+03  2.2701669090E+15  2.1859105074E+01  4.2881202995E-01
  4.1551481218E+03  1.3817885998E+15  1.3312542822E+01  4.3062448225E-01
  4.1552650496E+03  1.6719056401E+15  1.6107822073E+01  4.3211352929E-01
  4.1553819839E+03  1.0373393442E+15  9.9894660603E+00  4.3348951522E-01
  4.1554989248E+03  2.1582312781E+14  2.0790317739E+00  4.3380738763E-01
  4.1556158723E+03  3.1164473891E+15  3.0014380998E+01  4.3572872005E-01
  4.1557328264E+03  2.5716979913E+15  2.4770703206E+01  4.3867736032E-01
  4.1558497870E+03  1.2012882808E+14  1.1571551638E+00  4.3969324296E-01
  4.1559667543E+03  1.4475146293E+15  1.3947036631E+01  4.4031624501E-01
  4.1560837281E+03  2.4461378300E+15  2.3564095647E+01  4.4241267072E-01
  4.1562007085E+03  1.1443522274E+15  1.1024082514E+01  4.4421214078E-01
  4.1563176955E+03  1.2487336466E+15  1.2033307949E+01  4.4542633966E-01
  4.1564346891E+03  8.9287254467E+14  8.6034224209E+00  4.4632733896E-01
  4.1565516893E+03  2.3654004652E+15  2.2781697216E+01  4.4808938053E-01
  4.1566686960E+03  1.8172970688E+15  1.7511820006E+01  4.5025686617E-01
  4.1567857094E+03  5.4690634676E+14  5.2696538370E+00  4.5103281333E-01
  4.1569027293E+03  4.0055401224E+15  3.8591131422E+01  4.5377279088E-01
  4.1570197558E+03  1.3435729314E+15  1.2945656214E+01  4.5656860623E-01
  4.1571367890E+03  7.5196646676E+14  7.2468660706E+00  4.5747151572E-01
  4.1572538287E+03  1.7187312533E+15  1.6562793882E+01  4.5866323355E-01
  4.1573708750E+03  1.6642197034E+15  1.6034749971E+01  4.6032594331E-01
  4.1574879278E+03  3.5315800805E+15  3.4019254357E+01  4.6313883526E-01
  4.1576049873E+03  2.1226087807E+15  2.0454759618E+01  4.6603376221E-01
  4.1577220534E+03  1.2212731644E+15  1.1770101688E+01  4.6753310849E-01
  4.1578391260E+03  2.1195984829E+15  2.0427851806E+01  4.6914808861E-01
  4.1579562053E+03  1.8709359589E+15  1.8027794750E+01  4.7115725131E-01
  4.1580732912E+03  5.0549155365E+15  4.8702903077E+01  4.7501283562E-01
  4.1581903836E+03  2.6478122045E+15  2.5520221958E+01  4.7889384137E-01
  4.1583074826E+03  3.5477244516E+15  3.4194802019E+01  4.8174942705E-01
  4.1584245883E+03  5.6897240940E+15  5.4834062316E+01  4.8677613184E-01
  4.1585417005E+03  1.6774273644E+15  1.6162656922E+01  4.9055724692E-01
  4.1586588193E+03  6.2656898998E+13  6.0384966769E-01  4.9126001649E-01
  4.1587759447E+03  3.2226804115E+14  3.1060614545E+00  4.9147473335E-01
  4.1588930768E+03  2.7443419009E+14  2.6451279121E+00  4.9178277471E-01
  4.1590102154E+03  4.7023479982E+13  4.5321050019E-01  4.9194089476E-01
  4.1591273606E+03  1.9430990053E+15  1.8727418115E+01  4.9311004067E-01
  4.1592445124E+03  1.4977989696E+15  1.4431358711E+01  4.9485987070E-01
  4.1593616708E+03  2.0302355020E+15  1.9555530802E+01  4.9664358176E-01
  4.1594788358E+03  4.1213646227E+14  3.9712205017E+00  4.9748156410E-01
  4.1595960075E+03  3.3743760958E+15  3.2512934073E+01  4.9938760429E-01
  4.1597131857E+03  7.3664672243E+14  7.0969712247E+00  5.0147907142E-01
  4.1598303705E+03  1.9796491176E+15  1.9079928783E+01  5.0273956617E-01
  4.1599475619E+03  1.1652433649E+15  1.1226989312E+01  5.0436724043E-01
  4.1600647600E+03  4.4255844644E+14  4.2659219580E+00  5.0510569492E-01
  4.1601819646E+03  3.6327529463E+14  3.5020925319E+00  5.0550229546E-01
  4.1602991758E+03  1.4190763301E+15  1.3676719363E+01  5.0652765507E-01
  4.1604163937E+03  6.1949357405E+14  5.9718442315E+00  5.0752621714E-01
  4.1605336181E+03  1.7911507790E+15  1.7266431419E+01  5.0871692042E-01
  4.1606508492E+03  8.9091887188E+14  8.5886441525E+00  5.1003119328E-01
  4.1607680868E+03  2.2089567355E+15  2.1292443120E+01  5.1160853158E-01
  4.1608853311E+03  4.2641862158E+13  4.1099230139E-01  5.1269165144E-01
  4.1610025820E+03  1.9868921174E+15  1.9144550099E+01  5.1354715269E-01
  4.1611198394E+03  3.3182305205E+15  3.1973441204E+01  5.1652765834E-01
  4.1612371035E+03  2.7037022414E+14  2.6057458999E+00  5.1831405614E-01
  4.1613543742E+03  1.1164500825E+15  1.0760132654E+01  5.1886728500E-01
  4.1614716515E+03  1.2482288730E+15  1.2028547176E+01  5.2008830397E-01
  4.1615889355E+03  6.9519272344E+14  6.6976026292E+00  5.2100108228E-01
  4.1617062260E+03  6.7823859569E+14  6.5387146601E+00  5.2167752804E-01
  4.1618235231E+03  2.2207881518E+15  2.1407637686E+01  5.2341325712E-01
  4.1619408269E+03  3.1064658772E+13  2.9945191197E-01  5.2458363379E-01
  4.1620581373E+03  3.6467902659E+13  3.5155728533E-01  5.2461906358E-01
  4.1621754542E+03  1.6035126388E+13  1.5465952121E-01  5.2464492834E-01
  4.1622927778E+03  6.0234090983E+14  5.8073879200E+00  5.2476838520E-01
  4.1624101080E+03  3.4160226863E+15  3.2927335434E+01  5.2719890831E-01
  4.1625274449E+03  8.3085402702E+14  8.0074915632E+00  5.2943250459E-01
  4.1626447883E+03  1.8067829548E+14  1.7417953058E+00  5.2987908600E-01
  4.1627621384E+03  1.5150152914E+14  1.4605042205E+00  5.3004277506E-01
  4.1628794950E+03  5.3154418611E+15  5.1230627284E+01  5.3353772643E-01
  4.1629968583E+03  7.4499496889E+14  7.1823820230E+00  5.3675967717E-01
  4.1631142282E+03  2.3275381800E+14  2.2442785234E+00  5.3721242017E-01
  4.1632316048E+03  7.9893467787E+13  7.7017336896E-01  5.3730679330E-01