 TITLE="parade results"
 VARIABLES="wavelength [A]"
 "emission coefficient [W/m3/str/m]"
 "absorption coefficient [1/m]"
 "conditional distribution [-]"
 ZONE I=         1000 , F=POINT
  4.1160000000E+03  1.0553201541E+15  1.0124003735E+01  0.0000000000E+00
  4.1161147348E+03  4.6087782715E+15  4.4204273256E+01  3.3122751319E-03
  4.1162294760E+03  8.6584883237E+14  8.3062335974E+00  6.1243229289E-03
  4.1163442236E+03  8.6973247587E+13  8.3441167733E-01  6.4855132044E-03
  4.1164589776E+03  5.4555065952E+14  5.2338305599E+00  6.7551581932E-03
  4.1165737380E+03  6.3316679615E+14  6.0746670516E+00  7.3368880018E-03
  4.1166885048E+03  5.5607639804E+14  5.3328941174E+00  7.9315151435E-03
  4.1168032780E+03  1.1679336850E+14  1.1203282970E+00  8.0448212324E-03
  4.1169180576E+03  2.3108305999E+15  2.2159012455E+01  9.5605970047E-03
  4.1170328436E+03  2.1555678055E+14  2.0677252604E+00  1.0873197529E-02
  4.1171476360E+03  1.1927758620E+13  1.1441436989E-01  1.0922247024E-02
  4.1172624348E+03  5.5071818215E+14  5.2844537131E+00  1.1256394704E-02
  4.1173772400E+03  3.2022949293E+14  3.0727935676E+00  1.1694405741E-02
  4.1174920516E+03  4.0351417926E+14  3.8719467451E+00  1.2031149029E-02
  4.1176068696E+03  1.1108673027E+15  1.0658666443E+01  1.2775040162E-02
  4.1177216940E+03  1.6557956276E+15  1.5884797823E+01  1.4131205002E-02
  4.1178365248E+03  1.9259489353E+15  1.8475709465E+01  1.5854451444E-02
  4.1179513621E+03  2.2533814647E+15  2.1614503015E+01  1.7935133811E-02
  4.1180662057E+03  1.8032129962E+15  1.7289035859E+01  1.9956163452E-02
  4.1181810557E+03  5.4275872112E+14  5.2085054325E+00  2.1027744855E-02
  4.1182959121E+03  4.2285098607E+13  4.0571021213E-01  2.1271311884E-02
  4.1184107750E+03  2.7704772798E+13  2.6578568275E-01  2.1305083997E-02
  4.1185256442E+03  3.5402940548E+14  3.3975699958E+00  2.1504548248E-02
  4.1186405199E+03  4.8525183793E+14  4.6568883540E+00  2.1900130149E-02
  4.1187554020E+03  7.3175006189E+14  7.0201292055E+00  2.2560504026E-02
  4.1188702904E+03  6.9122192537E+13  6.6306044407E-01  2.2639168832E-02
  4.1189851853E+03  3.2381300726E+15  3.1061916365E+01  2.4726288241E-02
  4.1191000866E+03  3.1842494727E+14  3.0556821231E+00  2.6573768025E-02
  4.1192149943E+03  2.7822384209E+14  2.6700318826E+00  2.6861780562E-02
  4.1193299085E+03  2.3323087655E+15  2.2380220453E+01  2.8404919893E-02
  4.1194448290E+03  9.1309980242E+14  8.7622558941E+00  3.0080512716E-02
  4.1195597559E+03  2.3359663221E+14  2.2413621297E+00  3.0497419644E-02
  4.1196746893E+03  1.2703961341E+15  1.2187459594E+01  3.1181038852E-02
  4.1197896290E+03  1.6288917689E+15  1.5628695919E+01  3.2703039946E-02
  4.1199045752E+03  4.9844145268E+14  4.7840186171E+00  3.3654292532E-02
  4.1200195278E+03  3.1756678803E+14  3.0480520028E+00  3.4042802811E-02
  4.1201344868E+03  2.0626707086E+14  1.9778889318E+00  3.4274782432E-02
  4.1202494523E+03  3.5325405175E+14  3.3900129539E+00  3.4534846553E-02
  4.1203644241E+03  2.6153342376E+15  2.5088220219E+01  3.6338233742E-02
  4.1204794024E+03  3.6574404076E+14  3.5105452991E+00  3.7865561260E-02
  4.1205943870E+03  4.4178906602E+14  4.2408104419E+00  3.8243249204E-02
  4.1207093781E+03  6.7017713574E+14  6.4323374263E+00  3.8783172736E-02
  4.1208243757E+03  8.6311846669E+14  8.2814070658E+00  3.9484300731E-02
  4.1209393796E+03  1.5385410216E+15  1.4763814640E+01  4.0571652435E-02
  4.1210543899E+03  3.1381675160E+15  3.0109385740E+01  4.3176421310E-02
  4.1211694067E+03  5.2863852704E+14  5.0745585810E+00  4.5034040992E-02
  4.1212844299E+03  3.1130423608E+13  2.9880479819E-01  4.5240411926E-02
  4.1213994595E+03  3.4598928734E+14  3.3209479827E+00  4.5315736282E-02
  4.1215144955E+03  2.4198233366E+15  2.3219116363E+01  4.6985505446E-02
  4.1216295380E+03  3.4450227256E+14  3.3069568345E+00  4.8352341777E-02
  4.1217445869E+03  1.6352845844E+15  1.5698085195E+01  4.9290508559E-02
  4.1218596422E+03  2.2754423414E+13  2.1841801553E-01  5.0135598374E-02
  4.1219747039E+03  2.1743334435E+14  2.0871760770E+00  5.0246336971E-02
  4.1220897720E+03  4.7819979971E+14  4.5904941177E+00  5.0626894896E-02
  4.1222048466E+03  1.8757321571E+14  1.8007406133E+00  5.0927452533E-02
  4.1223199276E+03  9.7420792345E+14  9.3529661431E+00  5.1471167430E-02
  4.1224350150E+03  1.9848395867E+15  1.9050135267E+01  5.3062435723E-02
  4.1225501089E+03  9.7958471278E+14  9.3994022528E+00  5.4514395681E-02
  4.1226652092E+03  1.5335362944E+15  1.4711412457E+01  5.5747897244E-02
  4.1227803159E+03  6.9173578948E+13  6.6403172025E-01  5.6306680009E-02
  4.1228954290E+03  1.2136697496E+15  1.1650039985E+01  5.6823494785E-02
  4.1230105486E+03  2.3547423404E+15  2.2594928985E+01  5.8757113313E-02
  4.1231256745E+03  8.9043137318E+14  8.5470555688E+00  6.0323197275E-02
  4.1232408070E+03  2.1173154342E+15  2.0320696706E+01  6.1777077731E-02
  4.1233559458E+03  6.7310061591E+14  6.4600078308E+00  6.3146924668E-02
  4.1234710911E+03  1.3897457950E+15  1.3343770043E+01  6.4128245257E-02
  4.1235862428E+03  3.5940860002E+14  3.4508059053E+00  6.5009317157E-02
  4.1237014009E+03  2.1370221563E+14  2.0520492217E+00  6.5282497385E-02
  4.1238165655E+03  1.1794564937E+14  1.1325083871E+00  6.5442947332E-02
  4.1239317365E+03  1.7846285966E+15  1.7132848763E+01  6.6591491178E-02
  4.1240469140E+03  6.0108425154E+14  5.7715363199E+00  6.7808138393E-02
  4.1241620978E+03  7.4597686223E+14  7.1619177350E+00  6.8527994224E-02
  4.1242772881E+03  3.4484550242E+13  3.3109802937E-01  6.8770148420E-02
  4.1243924849E+03  1.0259377369E+15  9.8509454068E+00  6.9285834536E-02
  4.1245076881E+03  2.5083452712E+14  2.4084085662E+00  6.9917614632E-02
  4.1246228977E+03  9.1148575860E+14  8.7530875217E+00  7.0457824580E-02
  4.1247381137E+03  6.9083131345E+14  6.6318016933E+00  7.1267691695E-02
  4.1248533362E+03  2.3154845019E+15  2.2220006928E+01  7.2810785779E-02
  4.1249685651E+03  2.8553400680E+15  2.7404180450E+01  7.5369765545E-02
  4.1250838005E+03  2.7149272832E+15  2.6059506016E+01  7.8094128785E-02
  4.1251990423E+03  1.3850013394E+14  1.3300141993E+00  7.9245257822E-02
  4.1253142905E+03  4.9610556382E+14  4.7638137772E+00  7.9506377582E-02
  4.1254295452E+03  1.4254068000E+15  1.3685904451E+01  8.0614134044E-02
  4.1255448063E+03  1.5448870076E+14  1.4833389858E+00  8.1359193235E-02
  4.1256600739E+03  1.5704350576E+15  1.5080407000E+01  8.2158694244E-02
  4.1257753479E+03  1.1930666290E+15  1.1458264686E+01  8.3589560013E-02
  4.1258906283E+03  2.9701275934E+14  2.8525770249E+00  8.4239699408E-02
  4.1260059152E+03  2.6671287347E+14  2.5616815463E+00  8.4512717334E-02
  4.1261212086E+03  9.6878529331E+14  9.3044099369E+00  8.5245049744E-02
  4.1262365083E+03  5.3574171445E+13  5.1455569820E-01  8.5763908605E-02
  4.1263518146E+03  1.4948974008E+14  1.4358486660E+00  8.5855692985E-02
  4.1264671272E+03  3.2421638280E+14  3.1140932246E+00  8.6123402410E-02
  4.1265824463E+03  2.0458017107E+13  1.9642870776E-01  8.6309688854E-02
  4.1266977719E+03  1.8627863871E+15  1.7884196555E+01  8.7423303297E-02
  4.1268131039E+03  1.2305401549E+15  1.1815463918E+01  8.9021596616E-02
  4.1269284423E+03  4.7092115076E+15  4.5219735101E+01  9.2324902233E-02
  4.1270437872E+03  2.9840816572E+15  2.8642664534E+01  9.6245350693E-02
  4.1271591386E+03  1.5827138752E+15  1.5195087776E+01  9.8464085290E-02
  4.1272744963E+03  1.1126213105E+14  1.0686523990E+00  9.9119572535E-02
  4.1273898606E+03  6.9668695735E+14  6.6915927181E+00  9.9465574424E-02
  4.1275052313E+03  3.7984450308E+14  3.6488467463E+00  1.0002260209E-01
  4.1276206084E+03  1.1281545907E+14  1.0837148752E+00  1.0024829243E-01
  4.1277359920E+03  7.4042779188E+12  7.1113625440E-02  1.0029303421E-01
  4.1278513820E+03  7.3527983453E+13  7.0633786623E-01  1.0032513268E-01
  4.1279667785E+03  7.5660933225E+14  7.2683962454E+00  1.0078254649E-01
  4.1280821815E+03  7.4883347697E+14  7.1934500972E+00  1.0151238136E-01
  4.1281975909E+03  1.4869159500E+15  1.4283498327E+01  1.0271272362E-01
  4.1283130067E+03  7.8982876655E+14  7.5858979350E+00  1.0376203460E-01
  4.1284284290E+03  2.9143849300E+15  2.7986969340E+01  1.0592040662E-01
  4.1285438578E+03  6.6604950586E+14  6.3963382350E+00  1.0770243680E-01
  4.1286592930E+03  1.6783930308E+15  1.6122771427E+01  1.0881412052E-01
  4.1287747346E+03  6.4407271953E+13  6.1855281405E-01  1.0961462474E-01
  4.1288901828E+03  2.1848644665E+15  2.0975971280E+01  1.1068567740E-01
  4.1290056373E+03  1.0657607222E+15  1.0235624009E+01  1.1235782955E-01
  4.1291210984E+03  8.2817187170E+14  7.9569493620E+00  1.1321809440E-01
  4.1292365659E+03  1.3274940127E+15  1.2744752019E+01  1.1423803061E-01
  4.1293520398E+03  1.7219999387E+15  1.6534836571E+01  1.1584735887E-01
  4.1294675202E+03  5.1698290301E+14  4.9663800009E+00  1.1687464667E-01
  4.1295830071E+03  2.4228114012E+13  2.3261565889E-01  1.1705550420E-01
  4.1296985004E+03  5.6190774428E+14  5.3988624817E+00  1.1726390921E-01
  4.1298140002E+03  1.9032487173E+15  1.8283406289E+01  1.1868749712E-01
  4.1299295065E+03  3.6907282801E+14  3.5458411580E+00  1.1975069074E-01
  4.1300450192E+03  2.6990214586E+15  2.5925824613E+01  1.2120419273E-01
  4.1301605384E+03  2.0450645530E+15  1.9646216394E+01  1.2367720107E-01
  4.1302760640E+03  2.3508086224E+14  2.2582805995E+00  1.2465566131E-01
  4.1303915961E+03  1.7809109684E+13  1.7109077542E-01  1.2473984224E-01
  4.1305071347E+03  2.8698166590E+14  2.7573533310E+00  1.2485665437E-01
  4.1306226797E+03  8.3925775331E+14  8.0639374695E+00  1.2547303362E-01
  4.1307382312E+03  5.4587092823E+14  5.2450823849E+00  1.2617965275E-01
  4.1308537891E+03  2.8381012704E+15  2.7253775453E+01  1.2821924918E-01
  4.1309693536E+03  3.7199710240E+14  3.5743685283E+00  1.2982555937E-01
  4.1310849244E+03  1.4468451936E+15  1.3903503730E+01  1.3058240738E-01
  4.1312005018E+03  2.0728389096E+15  1.9916453935E+01  1.3250331590E-01
  4.1313160856E+03  3.9559550547E+13  3.8001901040E-01  1.3322771104E-01
  4.1314316759E+03  1.7067555107E+15  1.6387586257E+01  1.3401973290E-01
  4.1315472727E+03  1.0358806979E+15  9.9482669698E+00  1.3541563536E-01
  4.1316628759E+03  1.1150997418E+15  1.0712260714E+01  1.3646023504E-01
  4.1317784856E+03  2.5789834261E+15  2.4779216935E+01  1.3852304999E-01
  4.1318941018E+03  6.3099447833E+14  6.0616133731E+00  1.4014417189E-01
  4.1320097244E+03  6.1625262176E+14  5.9228562353E+00  1.4074998524E-01
  4.1321253535E+03  1.0428923218E+15  1.0022809002E+01  1.4160720530E-01
  4.1322409891E+03  8.3327892223E+14  8.0080759619E+00  1.4256736372E-01
  4.1323566311E+03  3.0571640703E+13  2.9367473969E-01  1.4291690196E-01
  4.1324722797E+03  8.9601711276E+13  8.6093678863E-01  1.4297528568E-01
  4.1325879347E+03  1.3843852774E+15  1.3302440767E+01  1.4372947162E-01
  4.1327035961E+03  2.2177844546E+15  2.1302031694E+01  1.4559090242E-01
  4.1328192641E+03  1.6414944333E+15  1.5771310248E+01  1.4748774938E-01
  4.1329349385E+03  1.9463604470E+15  1.8706214325E+01  1.4919534398E-01
  4.1330506194E+03  4.3005951900E+14  4.1337658941E+00  1.5022291877E-01
  4.1331663068E+03  5.0234805419E+14  4.8285696901E+00  1.5067606172E-01
  4.1332820006E+03  1.1553240785E+15  1.1100370812E+01  1.5148785304E-01
  4.1333977010E+03  1.7322494981E+15  1.6645455420E+01  1.5301301374E-01
  4.1335134078E+03  8.1353974387E+14  7.8163200982E+00  1.5423285100E-01
  4.1336291210E+03  1.8350425313E+15  1.7621150230E+01  1.5552836086E-01
  4.1337448408E+03  7.2158345999E+14  6.9347519937E+00  1.5677412453E-01
  4.1338605670E+03  1.6722773383E+15  1.6073536447E+01  1.5791001778E-01
  4.1339762998E+03  1.2595587322E+15  1.2105820060E+01  1.5938365865E-01
  4.1340920390E+03  1.0115111326E+15  9.7233378963E+00  1.6050187733E-01
  4.1342077846E+03  5.9199250232E+14  5.6895480478E+00  1.6126842686E-01
  4.1343235368E+03  3.2953257194E+14  3.1671034612E+00  1.6171202606E-01
  4.1344392954E+03  1.2443409978E+14  1.1959176172E+00  1.6193278630E-01
  4.1345550606E+03  2.1465696072E+15  2.0624942531E+01  1.6322185827E-01
  4.1346708322E+03  1.8896063224E+15  1.8156745146E+01  1.6523733539E-01
  4.1347866103E+03  9.8578208597E+14  9.4765824962E+00  1.6647982064E-01
  4.1349023949E+03  2.0199818770E+15  1.9411522080E+01  1.6795319166E-01
  4.1350181859E+03  8.3536234210E+14  8.0301180288E+00  1.6935661486E-01
  4.1351339835E+03  1.5201268630E+15  1.4610742058E+01  1.7046059918E-01
  4.1352497875E+03  1.3772171200E+15  1.3237490501E+01  1.7190382228E-01
  4.1353655980E+03  3.5987096102E+13  3.4591213460E-01  1.7247182011E-01
  4.1354814150E+03  1.5502614283E+14  1.4902967035E+00  1.7256475511E-01
  4.1355972385E+03  2.4268210136E+15  2.3330786411E+01  1.7404868848E-01
  4.1357130685E+03  1.8631684367E+15  1.7900160531E+01  1.7627376386E-01
  4.1358289050E+03  7.8673688159E+14  7.5576509233E+00  1.7747785282E-01
  4.1359447479E+03  7.3727802615E+14  7.0883832960E+00  1.7821950850E-01
  4.1360605974E+03  1.2873005052E+14  1.2373602192E+00  1.7854385233E-01
  4.1361764533E+03  6.8343908059E+14  6.5708366454E+00  1.7893790026E-01
  4.1362923158E+03  1.0614349668E+14  1.0204200371E+00  1.7923750448E-01
  4.1364081847E+03  2.6766849566E+15  2.5723795389E+01  1.8062947207E-01
  4.1365240601E+03  4.7726822679E+15  4.5874496404E+01  1.8474820173E-01
  4.1366399420E+03  7.9513082000E+14  7.6435163856E+00  1.8752271337E-01
  4.1367558304E+03  1.3520542253E+15  1.2998368414E+01  1.8864353005E-01
  4.1368717253E+03  9.7245082067E+14  9.3492752762E+00  1.8982508197E-01
  4.1369876267E+03  3.0987986659E+14  2.9792806468E+00  1.9041993510E-01
  4.1371035346E+03  2.1491762706E+13  2.0664524828E-01  1.9045499136E-01
  4.1372194489E+03  1.2739562450E+15  1.2250302737E+01  1.9126619255E-01
  4.1373353698E+03  2.7583300613E+14  2.6523023506E+00  1.9205658266E-01
  4.1374512972E+03  6.7290293811E+14  6.4710929695E+00  1.9249682845E-01
  4.1375672310E+03  2.2480312611E+14  2.1617130464E+00  1.9293242861E-01
  4.1376831714E+03  6.6177352474E+14  6.3640036280E+00  1.9325671376E-01
  4.1377991183E+03  2.7866715548E+15  2.6786454433E+01  1.9523751753E-01
  4.1379150716E+03  1.1453645758E+15  1.1005565510E+01  1.9717162180E-01
  4.1380310315E+03  2.8102935917E+15  2.7015977997E+01  1.9911606670E-01
  4.1381469978E+03  7.3407027193E+14  7.0576391876E+00  2.0074997528E-01
  4.1382629707E+03  4.6576479082E+15  4.4774404698E+01  2.0345127131E-01
  4.1383789500E+03  6.8961962644E+14  6.6280868363E+00  2.0621754191E-01
  4.1384949359E+03  6.8143270655E+14  6.5531068455E+00  2.0688558202E-01
  4.1386109283E+03  1.7217088320E+14  1.6557337453E+00  2.0720667280E-01
  4.1387269271E+03  8.4642974788E+14  8.1408630643E+00  2.0769565532E-01
  4.1388429325E+03  5.1980518862E+14  4.9991699422E+00  2.0840235800E-01
  4.1389589444E+03  1.8789774705E+14  1.8068999045E+00  2.0874726093E-01
  4.1390749627E+03  1.9904359834E+15  1.9141736013E+01  2.1009854523E-01
  4.1391909876E+03  1.7468996155E+14  1.6801266981E+00  2.1119245034E-01
  4.1393070190E+03  1.0190575189E+15  9.8013281138E+00  2.1170105981E-01
  4.1394230569E+03  1.0186135268E+15  9.7956711128E+00  2.1269435276E-01
  4.1395391013E+03  2.5008137621E+15  2.4046138588E+01  2.1472343984E-01
  4.1396551522E+03  2.0010203787E+14  1.9241130668E+00  2.1604414728E-01
  4.1397712096E+03  1.5845724604E+15  1.5238096277E+01  2.1679413863E-01
  4.1398872735E+03  2.1858548484E+15  2.1013335348E+01  2.1868051624E-01
  4.1400033439E+03  2.1968449736E+15  2.1116143335E+01  2.2081752724E-01
  4.1401194208E+03  1.7154943754E+15  1.6492524532E+01  2.2264956833E-01
  4.1402355043E+03  2.1728483878E+15  2.0895968065E+01  2.2458468976E-01
  4.1403515942E+03  7.6061433719E+14  7.3150066002E+00  2.2596044965E-01
  4.1404676907E+03  3.5493491461E+13  3.4137701809E-01  2.2626650748E-01
  4.1405837937E+03  3.3085875821E+14  3.1826705346E+00  2.2635231938E-01
  4.1406999031E+03  1.9308707827E+15  1.8572627528E+01  2.2768017965E-01
  4.1408160191E+03  8.7353524971E+14  8.4031902058E+00  2.2911182633E-01
  4.1409321416E+03  8.5911138536E+14  8.2644377944E+00  2.2995704654E-01
  4.1410482707E+03  1.8869636093E+15  1.8144889517E+01  2.3148851332E-01
  4.1411644062E+03  5.0065358130E+14  4.8158828026E+00  2.3268001194E-01
  4.1412805482E+03  8.6289835178E+14  8.2983197570E+00  2.3328807016E-01
  4.1413966968E+03  8.5832571655E+14  8.2572282922E+00  2.3412790661E-01
  4.1415128519E+03  1.8068776506E+15  1.7381106822E+01  2.3560337905E-01
  4.1416290135E+03  6.6431486612E+14  6.3912962880E+00  2.3682208695E-01
  4.1417451816E+03  1.2898573454E+15  1.2405447922E+01  2.3767245050E-01
  4.1418613562E+03  2.6310446757E+15  2.5299573819E+01  2.3970167643E-01
  4.1419775374E+03  2.5527358942E+15  2.4539040478E+01  2.4223170677E-01
  4.1420937250E+03  1.2939879583E+15  1.2447911330E+01  2.4401650934E-01
  4.1422099192E+03  1.1707570520E+15  1.1261370912E+01  2.4527407024E-01
  4.1423261199E+03  3.7560270676E+14  3.6137989783E+00  2.4591724681E-01
  4.1424423271E+03  9.3222802535E+14  8.9662755366E+00  2.4650225127E-01
  4.1425585409E+03  1.4443816646E+15  1.3892454053E+01  2.4766904897E-01
  4.1426747611E+03  1.8755338569E+15  1.8043335248E+01  2.4932768969E-01
  4.1427909879E+03  1.8400104518E+15  1.7701608308E+01  2.5114183524E-01
  4.1429072212E+03  3.7153466603E+14  3.5750079860E+00  2.5202603129E-01
  4.1430234610E+03  1.2658520404E+15  1.2179302141E+01  2.5279337352E-01
  4.1431397074E+03  5.8447665117E+14  5.6228074054E+00  2.5374946319E-01
  4.1432559603E+03  1.4977085876E+14  1.4408085855E+00  2.5403245354E-01
  4.1433722197E+03  6.4752247045E+14  6.2309745470E+00  2.5434814079E-01
  4.1434884856E+03  2.0128645272E+15  1.9365198471E+01  2.5575744755E-01
  4.1436047580E+03  2.0625404563E+15  1.9835926554E+01  2.5774807989E-01
  4.1437210370E+03  7.0397613031E+14  6.7720325128E+00  2.5890413743E-01
  4.1438373225E+03  1.7625681770E+15  1.6956440225E+01  2.5998982786E-01
  4.1439536145E+03  3.3712518808E+15  3.2427427985E+01  2.6281369494E-01
  4.1440699131E+03  1.1305692574E+15  1.0869572719E+01  2.6504642532E-01
  4.1441862182E+03  1.9210317533E+15  1.8483015983E+01  2.6645805770E-01
  4.1443025298E+03  1.6534484324E+15  1.5906389274E+01  2.6824960279E-01
  4.1444188479E+03  1.3542604741E+15  1.3032693527E+01  2.6977521089E-01
  4.1445351726E+03  3.7190624793E+14  3.5794249239E+00  2.7056668730E-01
  4.1446515038E+03  3.8399827042E+13  3.6953601294E-01  2.7065563212E-01
  4.1447678415E+03  1.0533068294E+15  1.0137387289E+01  2.7130590205E-01
  4.1448841858E+03  5.8431360430E+14  5.6229067977E+00  2.7210907208E-01
  4.1450005366E+03  1.5334221491E+15  1.4757360644E+01  2.7317934954E-01
  4.1451168939E+03  1.7495065608E+14  1.6836194764E+00  2.7395422343E-01
  4.1452332577E+03  2.6083313922E+15  2.5092817880E+01  2.7519162682E-01
  4.1453496281E+03  4.1725105644E+15  4.0145776279E+01  2.7885587645E-01
  4.1454660051E+03  1.4203999433E+15  1.3667932895E+01  2.8166831386E-01
  4.1455823885E+03  1.0553818535E+15  1.0155691054E+01  2.8286005835E-01
  4.1456987785E+03  9.2407383557E+14  8.8905196515E+00  2.8388461753E-01
  4.1458151750E+03  1.1087521684E+14  1.0671842977E+00  2.8420022147E-01
  4.1459315781E+03  1.6428905502E+15  1.5812200292E+01  2.8493624968E-01
  4.1460479877E+03  3.8372518563E+15  3.6917319605E+01  2.8808703127E-01
  4.1461644039E+03  4.2663612013E+14  4.1065380018E+00  2.9025277771E-01
  4.1462808265E+03  6.0727196013E+14  5.8416791905E+00  2.9073342010E-01
  4.1463972558E+03  1.0943877942E+15  1.0534327367E+01  2.9154803051E-01
  4.1465136915E+03  1.7983612502E+15  1.7309264257E+01  2.9314065553E-01
  4.1466301338E+03  2.8280679464E+14  2.7221564162E+00  2.9409116484E-01
  4.1467465826E+03  2.6296152258E+15  2.5306419870E+01  2.9550471589E-01
  4.1468630380E+03  1.3863041003E+15  1.3344285212E+01  2.9750676362E-01
  4.1469794999E+03  2.8328541758E+15  2.7255871209E+01  2.9952735600E-01
  4.1470959684E+03  2.6696731302E+15  2.5694521699E+01  3.0227640153E-01
  4.1472124434E+03  1.7849869558E+15  1.7179195955E+01  3.0452410833E-01
  4.1473289249E+03  8.7763491312E+13  8.4450887204E-01  3.0527131095E-01
  4.1474454130E+03  4.6012608497E+14  4.4298315530E+00  3.0545552021E-01
  4.1475619077E+03  3.2145053056E+15  3.0944817904E+01  3.0767147461E-01
  4.1476784088E+03  8.7822550057E+14  8.4544252005E+00  3.0980810396E-01
  4.1477949165E+03  3.6818382168E+14  3.5448299184E+00  3.1031421225E-01
  4.1479114308E+03  1.1700304698E+15  1.1262609029E+01  3.1097627327E-01
  4.1480279516E+03  2.8206901090E+15  2.7140471235E+01  3.1305330071E-01
  4.1481444790E+03  2.9423763466E+15  2.8320854815E+01  3.1587444305E-01
  4.1482610129E+03  1.3486961458E+15  1.2981433804E+01  3.1782209308E-01
  4.1483775533E+03  1.6664263155E+15  1.6043239493E+01  3.1926040998E-01
  4.1484941003E+03  2.4383367185E+15  2.3473995017E+01  3.2123980152E-01
  4.1486106539E+03  3.5904718614E+15  3.4554004868E+01  3.2448870958E-01
  4.1487272140E+03  1.1457251972E+15  1.1030308689E+01  3.2684407515E-01
  4.1488437807E+03  1.4206765884E+15  1.3678637876E+01  3.2812067428E-01
  4.1489603539E+03  1.4476634353E+15  1.3935471772E+01  3.2952533948E-01
  4.1490769336E+03  1.7918304618E+15  1.7253055998E+01  3.3112418697E-01
  4.1491935199E+03  1.9852284456E+15  1.9114785548E+01  3.3304869848E-01
  4.1493101128E+03  1.2676909734E+15  1.2207159921E+01  3.3447856287E-01
  4.1494267122E+03  2.4931221569E+15  2.4001020881E+01  3.3633809248E-01
  4.1495433181E+03  1.3445255006E+15  1.2946753046E+01  3.3820686528E-01
  4.1496599306E+03  2.8417446738E+15  2.7363417343E+01  3.4020367158E-01
  4.1497765497E+03  3.0496863341E+15  2.9363200394E+01  3.4312147026E-01
  4.1498931753E+03  2.8748419924E+15  2.7675205647E+01  3.4604023199E-01
  4.1500098075E+03  3.8953730610E+15  3.7505277706E+01  3.4961270480E-01
  4.1501264463E+03  1.7571503005E+15  1.6921822263E+01  3.5233491353E-01
  4.1502430916E+03  3.9611672628E+15  3.8128859675E+01  3.5514940260E-01
  4.1503597434E+03  1.5171558329E+15  1.4608235231E+01  3.5794991042E-01
  4.1504764018E+03  8.7329266970E+14  8.4094801455E+00  3.5886317817E-01
  4.1505930668E+03  3.3753022962E+15  3.2499231596E+01  3.6131562092E-01
  4.1507097383E+03  1.4709561729E+15  1.4161508196E+01  3.6376972121E-01
  4.1508264164E+03  1.9881819765E+15  1.9145097667E+01  3.6544800452E-01
  4.1509431010E+03  5.0655053492E+14  4.8787073587E+00  3.6637987381E-01
  4.1510597922E+03  2.5547624614E+15  2.4603952900E+01  3.6782782834E-01
  4.1511764900E+03  2.3458456118E+15  2.2588469705E+01  3.7028634213E-01
  4.1512931943E+03  1.4472823460E+15  1.3939950329E+01  3.7215343098E-01
  4.1514099052E+03  4.5713553536E+14  4.4030733888E+00  3.7288634175E-01
  4.1515266227E+03  1.9187560892E+15  1.8480617916E+01  3.7395593955E-01
  4.1516433467E+03  3.2669904074E+15  3.1465058251E+01  3.7672962657E-01
  4.1517600773E+03  1.7535356709E+15  1.6889592306E+01  3.7907807161E-01
  4.1518768144E+03  5.8404132023E+15  5.6222775352E+01  3.8334827488E-01
  4.1519935581E+03  3.2728564124E+15  3.1521047670E+01  3.8790702101E-01
  4.1521103084E+03  5.1334766855E+15  4.9443653877E+01  3.9202092197E-01
  4.1522270652E+03  2.7891519300E+15  2.6855549122E+01  3.9606719446E-01
  4.1523438286E+03  7.7506601592E+14  7.4649670625E+00  3.9754439477E-01
  4.1524605986E+03  2.0885462751E+15  2.0113619646E+01  3.9888360550E-01
  4.1525773752E+03  1.7005848403E+15  1.6379485890E+01  4.0081650651E-01
  4.1526941583E+03  1.2052590605E+15  1.1610301080E+01  4.0209678855E-01
  4.1528109479E+03  2.4668796198E+15  2.3763269718E+01  4.0397193933E-01
  4.1529277442E+03  2.0794116774E+14  2.0029780737E+00  4.0530843321E-01
  4.1530445470E+03  8.7486636142E+14  8.4263110837E+00  4.0578157481E-01
  4.1531613564E+03  2.9197224674E+13  2.8119096504E-01  4.0617363635E-01
  4.1532781724E+03  1.9653697868E+15  1.8927136367E+01  4.0713005438E-01
  4.1533949949E+03  1.6795530933E+15  1.6175318317E+01  4.0880084874E-01
  4.1535118240E+03  2.8102718159E+15  2.7059208560E+01  4.1126430914E-01
  4.1536286597E+03  7.1714039885E+14  6.9066188960E+00  4.1295719026E-01
  4.1537455019E+03  2.7699692562E+15  2.6665345220E+01  4.1460258166E-01
  4.1538623507E+03  2.2829478670E+15  2.1985624034E+01  4.1723318976E-01
  4.1539792061E+03  6.3654830051E+14  6.1317260317E+00  4.1855632099E-01
  4.1540960681E+03  3.6230690207E+14  3.4873832689E+00  4.1901608060E-01
  4.1542129366E+03  4.5745632832E+14  4.4052078104E+00  4.1940348948E-01
  4.1543298118E+03  2.2673308140E+15  2.1841999088E+01  4.2103829372E-01
  4.1544466935E+03  5.0091084962E+14  4.8254617790E+00  4.2242839268E-01
  4.1545635817E+03  1.5513210138E+15  1.4940504748E+01  4.2341232186E-01
  4.1546804766E+03  3.6913724740E+14  3.5562821824E+00  4.2434578202E-01
  4.1547973780E+03  1.6537201993E+15  1.5932111272E+01  4.2529675318E-01
  4.1549142860E+03  1.5011741166E+15  1.4459194845E+01  4.2684618531E-01
  4.1550312006E+03  2.2701453819E+15  2.1858897029E+01  4.2883515258E-01
  4.1551481218E+03  1.3817808498E+15  1.3312467834E+01  4.3064841220E-01
  4.1552650496E+03  1.6715269463E+15  1.6104141929E+01  4.3213793292E-01
  4.1553819839E+03  1.0358800964E+15  9.9753604675E+00  4.3351352535E-01
  4.1554989248E+03  2.1552089269E+14  2.0761079281E+00  4.3383077992E-01
  4.1556158723E+03  3.1158525393E+15  3.0008630644E+01  4.3575240113E-01
  4.1557328264E+03  2.5716532150E+15  2.4770270588E+01  4.3870199436E-01
  4.1558497870E+03  1.2011143780E+14  1.1569873249E+00  4.3971829425E-01
  4.1559667543E+03  1.4472069888E+15  1.3944070940E+01  4.4034151086E-01
  4.1560837281E+03  2.4431538130E+15  2.3535258111E+01  4.4243676249E-01
  4.1562007085E+03  1.1440342195E+15  1.1021009370E+01  4.4423543311E-01
  4.1563176955E+03  1.2438461861E+15  1.1986061305E+01  4.4544679055E-01
  4.1564346891E+03  8.9280664010E+14  8.6027858141E+00  4.4634612449E-01
  4.1565516893E+03  2.3653789402E+15  2.2781489495E+01  4.4810905498E-01
  4.1566686960E+03  1.8148209651E+15  1.7487887769E+01  4.5027612718E-01
  4.1567857094E+03  5.4658078465E+14  5.2664974500E+00  4.5105116923E-01
  4.1569027293E+03  4.0055317067E+15  3.8591049995E+01  4.5379214527E-01
  4.1570197558E+03  1.3435730374E+15  1.2945657656E+01  4.5658912989E-01
  4.1571367890E+03  7.5196272524E+14  7.2468299111E+00  4.5749241675E-01
  4.1572538287E+03  1.7186669788E+15  1.6562172790E+01  4.5868462086E-01
  4.1573708750E+03  1.6635509258E+15  1.6028286726E+01  4.6034766095E-01
  4.1574879278E+03  3.5314841286E+15  3.4018326510E+01  4.6316139674E-01
  4.1576049873E+03  2.1224303136E+15  2.0453039163E+01  4.6605740888E-01
  4.1577220534E+03  1.2212426401E+15  1.1769807392E+01  4.6755728770E-01
  4.1578391260E+03  2.1195658366E+15  2.0427537051E+01  4.6917291331E-01
  4.1579562053E+03  1.8709198750E+15  1.8027639630E+01  4.7118288591E-01
  4.1580732912E+03  5.0546154786E+15  4.8700010234E+01  4.7503992486E-01
  4.1581903836E+03  2.6471205593E+15  2.5513537921E+01  4.7892209555E-01
  4.1583074826E+03  3.5457784499E+15  3.4175995778E+01  4.8177747272E-01
  4.1584245883E+03  5.6897126136E+15  5.4833951369E+01  4.8680545505E-01
  4.1585417005E+03  1.6773904806E+15  1.6162300358E+01  4.9058820864E-01
  4.1586588193E+03  6.2375474192E+13  6.0112899091E-01  4.9129107086E-01
  4.1587759447E+03  3.2226241485E+14  3.1060070604E+00  4.9150578728E-01
  4.1588930768E+03  2.7408051429E+14  2.6417085988E+00  4.9181379339E-01
  4.1590102154E+03  4.6153874413E+13  4.4480247245E-01  4.9197137718E-01
  4.1591273606E+03  1.9429412654E+15  1.8725885387E+01  4.9314054843E-01
  4.1592445124E+03  1.4977966126E+15  1.4431335891E+01  4.9489105654E-01
  4.1593616708E+03  2.0302343739E+15  1.9555519891E+01  4.9667551404E-01
  4.1594788358E+03  4.1213564396E+14  3.9712125912E+00  4.9751384226E-01
  4.1595960075E+03  3.3743753603E+15  3.2512926969E+01  4.9942067347E-01
  4.1597131857E+03  7.3664502286E+14  7.0969548271E+00  5.0151301584E-01
  4.1598303705E+03  1.9794635250E+15  1.9078139216E+01  5.0277393417E-01
  4.1599475619E+03  1.1652288904E+15  1.1226849735E+01  5.0440218058E-01
  4.1600647600E+03  4.4249712750E+14  4.2653306724E+00  5.0514089753E-01
  4.1601819646E+03  3.6325419257E+14  3.5018890368E+00  5.0553762225E-01
  4.1602991758E+03  1.4187764591E+15  1.3673827727E+01  5.0656320402E-01
  4.1604163937E+03  6.1949048847E+14  5.9718144494E+00  5.0756202018E-01
  4.1605336181E+03  1.7911473243E+15  1.7266398003E+01  5.0875323836E-01
  4.1606508492E+03  8.9063432998E+14  8.5858894405E+00  5.1006790499E-01
  4.1607680868E+03  2.2089159335E+15  2.1292048572E+01  5.1164576018E-01
  4.1608853311E+03  4.1780329737E+13  4.0266358787E-01  5.1272886006E-01
  4.1610025820E+03  1.9868846571E+15  1.9144477970E+01  5.1358425565E-01
  4.1611198394E+03  3.3181913132E+15  3.1973061635E+01  5.1656597981E-01
  4.1612371035E+03  2.7026415217E+14  2.6047193458E+00  5.1835305168E-01
  4.1613543742E+03  1.1162224575E+15  1.0757930309E+01  5.1890633926E-01
  4.1614716515E+03  1.2480936104E+15  1.2027239153E+01  5.2012782962E-01
  4.1615889355E+03  6.9341391833E+14  6.6804012473E+00  5.2103978976E-01
  4.1617062260E+03  6.7789120582E+14  6.5353552704E+00  5.2171546892E-01
  4.1618235231E+03  2.2206021643E+15  2.1405830088E+01  5.2345166059E-01
  4.1619408269E+03  3.1006705533E+13  2.9888883634E-01  5.2462241171E-01
  4.1620581373E+03  3.6387219472E+13  3.5077770279E-01  5.2465789074E-01
  4.1621754542E+03  1.4703727150E+13  1.4177931687E-01  5.2468307031E-01
  4.1622927778E+03  6.0208245367E+14  5.8048863808E+00  5.2480588691E-01
  4.1624101080E+03  3.4157039412E+15  3.2924239136E+01  5.2723710967E-01
  4.1625274449E+03  8.3077982778E+14  8.0067755325E+00  5.2947144938E-01
  4.1626447883E+03  1.8031910839E+14  1.7383290614E+00  5.2991829801E-01
  4.1627621384E+03  1.4731980013E+14  1.4200564799E+00  5.3007981650E-01
  4.1628794950E+03  5.3132612566E+15  5.1209537757E+01  5.3357306686E-01
  4.1629968583E+03  7.4497372146E+14  7.1821766381E+00  5.3679538523E-01
  4.1631142282E+03  2.3193485143E+14  2.2363593918E+00  5.3724782120E-01
  4.1632316048E+03  7.9272217746E+13  7.6415508332E-01  5.3734149393E-01