TITLE = Boundary data
VARIABLES =  "x0" "x1" "rho0" "rho1" "u" "v" "T" "Tv0" "rho" "H" "M" "p" "gamma"
ZONE   T= "ZONE0 Side0", N=256, E=255, F=FEPOINT, ET=LINESEG, SOLUTIONTIME=0.00000000000000e+00
+3.82382300000000e-06 +0.00000000000000e+00 +0.00000000000000e+00 +3.97916494174200e-02 +0.00000000000000e+00 +0.00000000000000e+00 +2.94700000000000e+02 +2.94700000000000e+02 +3.97916494174200e-02 +3.06149372485121e+05 +0.00000000000000e+00 +3.48051073972591e+03 +0.00000000000000e+00
+7.72592262000000e-04 +3.58053105000000e-04 +0.00000000000000e+00 +4.49292989840600e-02 +0.00000000000000e+00 +0.00000000000000e+00 +2.94700000000000e+02 +2.94700000000000e+02 +4.49292989840600e-02 +3.06149372485121e+05 +0.00000000000000e+00 +3.92989257625291e+03 +0.00000000000000e+00
+1.55296432800000e-03 +7.21635122000000e-04 +0.00000000000000e+00 +4.89025765444800e-02 +0.00000000000000e+00 +0.00000000000000e+00 +2.94700000000000e+02 +2.94700000000000e+02 +4.89025765444800e-02 +3.06149372485121e+05 +0.00000000000000e+00 +4.27742869057391e+03 +0.00000000000000e+00
+2.33338982800000e-03 +1.08521734400000e-03 +0.00000000000000e+00 +4.97628470615100e-02 +0.00000000000000e+00 +0.00000000000000e+00 +2.94700000000000e+02 +2.94700000000000e+02 +4.97628470615100e-02 +3.06149372485121e+05 +0.00000000000000e+00 +4.35267515101045e+03 +0.00000000000000e+00
+3.11381695800000e-03 +1.44879892500000e-03 +0.00000000000000e+00 +5.00433990761500e-02 +0.00000000000000e+00 +0.00000000000000e+00 +2.94700000000000e+02 +2.94700000000000e+02 +5.00433990761500e-02 +3.06149372485121e+05 +0.00000000000000e+00 +4.37721457861152e+03 +0.00000000000000e+00
+3.89424362200000e-03 +1.81238015600000e-03 +0.00000000000000e+00 +5.01967155029000e-02 +0.00000000000000e+00 +0.00000000000000e+00 +2.94700000000000e+02 +2.94700000000000e+02 +5.01967155029000e-02 +3.06149372485121e+05 +0.00000000000000e+00 +4.39062491665210e+03 +0.00000000000000e+00
+4.67467028600000e-03 +2.17596092300000e-03 +0.00000000000000e+00 +4.97963626580600e-02 +0.00000000000000e+00 +0.00000000000000e+00 +2.94700000000000e+02 +2.94700000000000e+02 +4.97963626580600e-02 +3.06149372485121e+05 +0.00000000000000e+00 +4.35560670563179e+03 +0.00000000000000e+00
+5.45509671800000e-03 +2.53954134000000e-03 +0.00000000000000e+00 +5.00759404917300e-02 +0.00000000000000e+00 +0.00000000000000e+00 +2.94700000000000e+02 +2.94700000000000e+02 +5.00759404917300e-02 +3.06149372485121e+05 +0.00000000000000e+00 +4.38006092321071e+03 +0.00000000000000e+00
+6.23552268400000e-03 +2.90312152400000e-03 +0.00000000000000e+00 +5.00450037724100e-02 +0.00000000000000e+00 +0.00000000000000e+00 +2.94700000000000e+02 +2.94700000000000e+02 +5.00450037724100e-02 +3.06149372485121e+05 +0.00000000000000e+00 +4.37735493877876e+03 +0.00000000000000e+00
+7.01594911500000e-03 +3.26670124200000e-03 +0.00000000000000e+00 +4.97702746691200e-02 +0.00000000000000e+00 +0.00000000000000e+00 +2.94700000000000e+02 +2.94700000000000e+02 +4.97702746691200e-02 +3.06149372485121e+05 +0.00000000000000e+00 +4.35332483174587e+03 +0.00000000000000e+00
+7.79637508100000e-03 +3.63028026200000e-03 +0.00000000000000e+00 +4.93430947579700e-02 +0.00000000000000e+00 +0.00000000000000e+00 +2.94700000000000e+02 +2.94700000000000e+02 +4.93430947579700e-02 +3.06149372485121e+05 +0.00000000000000e+00 +4.31596010094630e+03 +0.00000000000000e+00
+8.57680104700000e-03 +3.99385904900000e-03 +0.00000000000000e+00 +4.99563932039400e-02 +0.00000000000000e+00 +0.00000000000000e+00 +2.94700000000000e+02 +2.94700000000000e+02 +4.99563932039400e-02 +3.06149372485121e+05 +0.00000000000000e+00 +4.36960431673297e+03 +0.00000000000000e+00
+9.35722701300000e-03 +4.35743713800000e-03 +0.00000000000000e+00 +4.96277350187900e-02 +0.00000000000000e+00 +0.00000000000000e+00 +2.94700000000000e+02 +2.94700000000000e+02 +4.96277350187900e-02 +3.06149372485121e+05 +0.00000000000000e+00 +4.34085712077952e+03 +0.00000000000000e+00
+1.01376520500000e-02 +4.72101476000000e-03 +0.00000000000000e+00 +4.91481611337100e-02 +0.00000000000000e+00 +0.00000000000000e+00 +2.94700000000000e+02 +2.94700000000000e+02 +4.91481611337100e-02 +3.06149372485121e+05 +0.00000000000000e+00 +4.29890957444880e+03 +0.00000000000000e+00
+1.09180780100000e-02 +5.08459191800000e-03 +0.00000000000000e+00 +4.93892522374900e-02 +0.00000000000000e+00 +0.00000000000000e+00 +2.94700000000000e+02 +2.94700000000000e+02 +4.93892522374900e-02 +3.06149372485121e+05 +0.00000000000000e+00 +4.31999742047288e+03 +0.00000000000000e+00
+1.16985039800000e-02 +5.44816860900000e-03 +0.00000000000000e+00 +4.95422613742000e-02 +0.00000000000000e+00 +0.00000000000000e+00 +2.94700000000000e+02 +2.94700000000000e+02 +4.95422613742000e-02 +3.06149372485121e+05 +0.00000000000000e+00 +4.33338088035435e+03 +0.00000000000000e+00
+1.24789290100000e-02 +5.81174483500000e-03 +0.00000000000000e+00 +4.94025653299500e-02 +0.00000000000000e+00 +0.00000000000000e+00 +2.94700000000000e+02 +2.94700000000000e+02 +4.94025653299500e-02 +3.06149372485121e+05 +0.00000000000000e+00 +4.32116189497857e+03 +0.00000000000000e+00
+1.32593540500000e-02 +6.17532013000000e-03 +0.00000000000000e+00 +4.92307933533500e-02 +0.00000000000000e+00 +0.00000000000000e+00 +2.94700000000000e+02 +2.94700000000000e+02 +4.92307933533500e-02 +3.06149372485121e+05 +0.00000000000000e+00 +4.30613728006330e+03 +0.00000000000000e+00
+1.40397800100000e-02 +6.53889495900000e-03 +0.00000000000000e+00 +4.90813465287600e-02 +0.00000000000000e+00 +0.00000000000000e+00 +2.94700000000000e+02 +2.94700000000000e+02 +4.90813465287600e-02 +3.06149372485121e+05 +0.00000000000000e+00 +4.29306540981870e+03 +0.00000000000000e+00
+1.48202050500000e-02 +6.90246885600000e-03 +0.00000000000000e+00 +4.90261726857300e-02 +0.00000000000000e+00 +0.00000000000000e+00 +2.94700000000000e+02 +2.94700000000000e+02 +4.90261726857300e-02 +3.06149372485121e+05 +0.00000000000000e+00 +4.28823944366677e+03 +0.00000000000000e+00
+1.56006300800000e-02 +7.26604228800000e-03 +0.00000000000000e+00 +4.91472471687400e-02 +0.00000000000000e+00 +0.00000000000000e+00 +2.94700000000000e+02 +2.94700000000000e+02 +4.91472471687400e-02 +3.06149372485121e+05 +0.00000000000000e+00 +4.29882963142205e+03 +0.00000000000000e+00
+1.63810551200000e-02 +7.62961525500000e-03 +0.00000000000000e+00 +4.93081163463500e-02 +0.00000000000000e+00 +0.00000000000000e+00 +2.94700000000000e+02 +2.94700000000000e+02 +4.93081163463500e-02 +3.06149372485121e+05 +0.00000000000000e+00 +4.31290059627423e+03 +0.00000000000000e+00
+1.71614810800000e-02 +7.99318682400000e-03 +0.00000000000000e+00 +4.93577136316300e-02 +0.00000000000000e+00 +0.00000000000000e+00 +2.94700000000000e+02 +2.94700000000000e+02 +4.93577136316300e-02 +3.06149372485121e+05 +0.00000000000000e+00 +4.31723879000597e+03 +0.00000000000000e+00
+1.79419051900000e-02 +8.35675839300000e-03 +0.00000000000000e+00 +4.92574413112900e-02 +0.00000000000000e+00 +0.00000000000000e+00 +2.94700000000000e+02 +2.94700000000000e+02 +4.92574413112900e-02 +3.06149372485121e+05 +0.00000000000000e+00 +4.30846813352527e+03 +0.00000000000000e+00
+1.87223311500000e-02 +8.72032903100000e-03 +0.00000000000000e+00 +4.90912705167200e-02 +0.00000000000000e+00 +0.00000000000000e+00 +2.94700000000000e+02 +2.94700000000000e+02 +4.90912705167200e-02 +3.06149372485121e+05 +0.00000000000000e+00 +4.29393344487583e+03 +0.00000000000000e+00
+1.95027552500000e-02 +9.08389873800000e-03 +0.00000000000000e+00 +4.89491366219500e-02 +0.00000000000000e+00 +0.00000000000000e+00 +2.94700000000000e+02 +2.94700000000000e+02 +4.89491366219500e-02 +3.06149372485121e+05 +0.00000000000000e+00 +4.28150122468721e+03 +0.00000000000000e+00
+2.02831812200000e-02 +9.44746751300000e-03 +0.00000000000000e+00 +4.88677574397200e-02 +0.00000000000000e+00 +0.00000000000000e+00 +2.94700000000000e+02 +2.94700000000000e+02 +4.88677574397200e-02 +3.06149372485121e+05 +0.00000000000000e+00 +4.27438312021332e+03 +0.00000000000000e+00
+2.10636053200000e-02 +9.81103535700000e-03 +0.00000000000000e+00 +4.88376591548200e-02 +0.00000000000000e+00 +0.00000000000000e+00 +2.94700000000000e+02 +2.94700000000000e+02 +4.88376591548200e-02 +3.06149372485121e+05 +0.00000000000000e+00 +4.27175047227397e+03 +0.00000000000000e+00
+2.18440312900000e-02 +1.01746032000000e-02 +0.00000000000000e+00 +4.88381584495500e-02 +0.00000000000000e+00 +0.00000000000000e+00 +2.94700000000000e+02 +2.94700000000000e+02 +4.88381584495500e-02 +3.06149372485121e+05 +0.00000000000000e+00 +4.27179414477048e+03 +0.00000000000000e+00
+2.26244553900000e-02 +1.05381691800000e-02 +0.00000000000000e+00 +4.88484222332000e-02 +0.00000000000000e+00 +0.00000000000000e+00 +2.94700000000000e+02 +2.94700000000000e+02 +4.88484222332000e-02 +3.06149372485121e+05 +0.00000000000000e+00 +4.27269190120297e+03 +0.00000000000000e+00
+2.34048813600000e-02 +1.09017342300000e-02 +0.00000000000000e+00 +4.88616795481600e-02 +0.00000000000000e+00 +0.00000000000000e+00 +2.94700000000000e+02 +2.94700000000000e+02 +4.88616795481600e-02 +3.06149372485121e+05 +0.00000000000000e+00 +4.27385149694162e+03 +0.00000000000000e+00
+2.41853054600000e-02 +1.12652992800000e-02 +0.00000000000000e+00 +4.88734276999400e-02 +0.00000000000000e+00 +0.00000000000000e+00 +2.94700000000000e+02 +2.94700000000000e+02 +4.88734276999400e-02 +3.06149372485121e+05 +0.00000000000000e+00 +4.27487908863588e+03 +0.00000000000000e+00
+2.49657314300000e-02 +1.16288624700000e-02 +0.00000000000000e+00 +4.88829407436100e-02 +0.00000000000000e+00 +0.00000000000000e+00 +2.94700000000000e+02 +2.94700000000000e+02 +4.88829407436100e-02 +3.06149372485121e+05 +0.00000000000000e+00 +4.27571117906555e+03 +0.00000000000000e+00
+2.57461555300000e-02 +1.19924247300000e-02 +0.00000000000000e+00 +4.88918317255000e-02 +0.00000000000000e+00 +0.00000000000000e+00 +2.94700000000000e+02 +2.94700000000000e+02 +4.88918317255000e-02 +3.06149372485121e+05 +0.00000000000000e+00 +4.27648885876488e+03 +0.00000000000000e+00
+2.65265815000000e-02 +1.23559860500000e-02 +0.00000000000000e+00 +4.89032374364200e-02 +0.00000000000000e+00 +0.00000000000000e+00 +2.94700000000000e+02 +2.94700000000000e+02 +4.89032374364200e-02 +3.06149372485121e+05 +0.00000000000000e+00 +4.27748649771507e+03 +0.00000000000000e+00
+2.73070074600000e-02 +1.27195473800000e-02 +0.00000000000000e+00 +4.89160166222400e-02 +0.00000000000000e+00 +0.00000000000000e+00 +2.94700000000000e+02 +2.94700000000000e+02 +4.89160166222400e-02 +3.06149372485121e+05 +0.00000000000000e+00 +4.27860427227689e+03 +0.00000000000000e+00
+2.80874315600000e-02 +1.30831068400000e-02 +0.00000000000000e+00 +4.89268310485300e-02 +0.00000000000000e+00 +0.00000000000000e+00 +2.94700000000000e+02 +2.94700000000000e+02 +4.89268310485300e-02 +3.06149372485121e+05 +0.00000000000000e+00 +4.27955019252391e+03 +0.00000000000000e+00
+2.88678575300000e-02 +1.34466644400000e-02 +0.00000000000000e+00 +4.89344546615700e-02 +0.00000000000000e+00 +0.00000000000000e+00 +2.94700000000000e+02 +2.94700000000000e+02 +4.89344546615700e-02 +3.06149372485121e+05 +0.00000000000000e+00 +4.28021701753493e+03 +0.00000000000000e+00
+2.96482835000000e-02 +1.38102220400000e-02 +0.00000000000000e+00 +4.89371371440400e-02 +0.00000000000000e+00 +0.00000000000000e+00 +2.94700000000000e+02 +2.94700000000000e+02 +4.89371371440400e-02 +3.06149372485121e+05 +0.00000000000000e+00 +4.28045164990586e+03 +0.00000000000000e+00
+3.04287076000000e-02 +1.41737787100000e-02 +0.00000000000000e+00 +4.89348281176500e-02 +0.00000000000000e+00 +0.00000000000000e+00 +2.94700000000000e+02 +2.94700000000000e+02 +4.89348281176500e-02 +3.06149372485121e+05 +0.00000000000000e+00 +4.28024968312975e+03 +0.00000000000000e+00
+3.12091335700000e-02 +1.45373335100000e-02 +0.00000000000000e+00 +4.89289544735900e-02 +0.00000000000000e+00 +0.00000000000000e+00 +2.94700000000000e+02 +2.94700000000000e+02 +4.89289544735900e-02 +3.06149372485121e+05 +0.00000000000000e+00 +4.27973592505409e+03 +0.00000000000000e+00
+3.19895595300000e-02 +1.49008873900000e-02 +0.00000000000000e+00 +4.89205042528400e-02 +0.00000000000000e+00 +0.00000000000000e+00 +2.94700000000000e+02 +2.94700000000000e+02 +4.89205042528400e-02 +3.06149372485121e+05 +0.00000000000000e+00 +4.27899679801352e+03 +0.00000000000000e+00
+3.27699855000000e-02 +1.52644403300000e-02 +0.00000000000000e+00 +4.89098766235300e-02 +0.00000000000000e+00 +0.00000000000000e+00 +2.94700000000000e+02 +2.94700000000000e+02 +4.89098766235300e-02 +3.06149372485121e+05 +0.00000000000000e+00 +4.27806721659397e+03 +0.00000000000000e+00
+3.35504114600000e-02 +1.56279914100000e-02 +0.00000000000000e+00 +4.88984011699400e-02 +0.00000000000000e+00 +0.00000000000000e+00 +2.94700000000000e+02 +2.94700000000000e+02 +4.88984011699400e-02 +3.06149372485121e+05 +0.00000000000000e+00 +4.27706347736607e+03 +0.00000000000000e+00
+3.43308374300000e-02 +1.59915424900000e-02 +0.00000000000000e+00 +4.88861104405400e-02 +0.00000000000000e+00 +0.00000000000000e+00 +2.94700000000000e+02 +2.94700000000000e+02 +4.88861104405400e-02 +3.06149372485121e+05 +0.00000000000000e+00 +4.27598842729144e+03 +0.00000000000000e+00
+3.51112633900000e-02 +1.63550917100000e-02 +0.00000000000000e+00 +4.88734047145100e-02 +0.00000000000000e+00 +0.00000000000000e+00 +2.94700000000000e+02 +2.94700000000000e+02 +4.88734047145100e-02 +3.06149372485121e+05 +0.00000000000000e+00 +4.27487707813777e+03 +0.00000000000000e+00
+3.58916893600000e-02 +1.67186390600000e-02 +0.00000000000000e+00 +4.88604270008200e-02 +0.00000000000000e+00 +0.00000000000000e+00 +2.94700000000000e+02 +2.94700000000000e+02 +4.88604270008200e-02 +3.06149372485121e+05 +0.00000000000000e+00 +4.27374193866664e+03 +0.00000000000000e+00
+3.66721153300000e-02 +1.70821845500000e-02 +0.00000000000000e+00 +4.88479852020900e-02 +0.00000000000000e+00 +0.00000000000000e+00 +2.94700000000000e+02 +2.94700000000000e+02 +4.88479852020900e-02 +3.06149372485121e+05 +0.00000000000000e+00 +4.27265367480386e+03 +0.00000000000000e+00
+3.74525412900000e-02 +1.74457300500000e-02 +0.00000000000000e+00 +4.88355867722000e-02 +0.00000000000000e+00 +0.00000000000000e+00 +2.94700000000000e+02 +2.94700000000000e+02 +4.88355867722000e-02 +3.06149372485121e+05 +0.00000000000000e+00 +4.27156920434285e+03 +0.00000000000000e+00
+3.82329672600000e-02 +1.78092736800000e-02 +0.00000000000000e+00 +4.88233429731000e-02 +0.00000000000000e+00 +0.00000000000000e+00 +2.94700000000000e+02 +2.94700000000000e+02 +4.88233429731000e-02 +3.06149372485121e+05 +0.00000000000000e+00 +4.27049825918510e+03 +0.00000000000000e+00
+3.90133969500000e-02 +1.81728173000000e-02 +0.00000000000000e+00 +4.88116724207100e-02 +0.00000000000000e+00 +0.00000000000000e+00 +2.94700000000000e+02 +2.94700000000000e+02 +4.88116724207100e-02 +3.06149372485121e+05 +0.00000000000000e+00 +4.26947745498305e+03 +0.00000000000000e+00
+3.97938229100000e-02 +1.85363590700000e-02 +0.00000000000000e+00 +4.88002192860800e-02 +0.00000000000000e+00 +0.00000000000000e+00 +2.94700000000000e+02 +2.94700000000000e+02 +4.88002192860800e-02 +3.06149372485121e+05 +0.00000000000000e+00 +4.26847566795821e+03 +0.00000000000000e+00
+4.05742488800000e-02 +1.88998971100000e-02 +0.00000000000000e+00 +4.87903411004400e-02 +0.00000000000000e+00 +0.00000000000000e+00 +2.94700000000000e+02 +2.94700000000000e+02 +4.87903411004400e-02 +3.06149372485121e+05 +0.00000000000000e+00 +4.26761163915537e+03 +0.00000000000000e+00
+4.13546785700000e-02 +1.92634370200000e-02 +0.00000000000000e+00 +4.87808566869500e-02 +0.00000000000000e+00 +0.00000000000000e+00 +2.94700000000000e+02 +2.94700000000000e+02 +4.87808566869500e-02 +3.06149372485121e+05 +0.00000000000000e+00 +4.26678205296090e+03 +0.00000000000000e+00
+4.21351045400000e-02 +1.96269732000000e-02 +0.00000000000000e+00 +4.87723177036400e-02 +0.00000000000000e+00 +0.00000000000000e+00 +2.94700000000000e+02 +2.94700000000000e+02 +4.87723177036400e-02 +3.06149372485121e+05 +0.00000000000000e+00 +4.26603516200383e+03 +0.00000000000000e+00
+4.29155305000000e-02 +1.99905093800000e-02 +0.00000000000000e+00 +4.87643241715500e-02 +0.00000000000000e+00 +0.00000000000000e+00 +2.94700000000000e+02 +2.94700000000000e+02 +4.87643241715500e-02 +3.06149372485121e+05 +0.00000000000000e+00 +4.26533598077624e+03 +0.00000000000000e+00
+4.36959601900000e-02 +2.03540418300000e-02 +0.00000000000000e+00 +4.87585407934200e-02 +0.00000000000000e+00 +0.00000000000000e+00 +2.94700000000000e+02 +2.94700000000000e+02 +4.87585407934200e-02 +3.06149372485121e+05 +0.00000000000000e+00 +4.26483011811440e+03 +0.00000000000000e+00
+4.44763861600000e-02 +2.07175742800000e-02 +0.00000000000000e+00 +4.87541164621700e-02 +0.00000000000000e+00 +0.00000000000000e+00 +2.94700000000000e+02 +2.94700000000000e+02 +4.87541164621700e-02 +3.06149372485121e+05 +0.00000000000000e+00 +4.26444312906878e+03 +0.00000000000000e+00
+4.52568158500000e-02 +2.10811067400000e-02 +0.00000000000000e+00 +4.87513583284100e-02 +0.00000000000000e+00 +0.00000000000000e+00 +2.94700000000000e+02 +2.94700000000000e+02 +4.87513583284100e-02 +3.06149372485121e+05 +0.00000000000000e+00 +4.26420187960278e+03 +0.00000000000000e+00
+4.60372455400000e-02 +2.14446354700000e-02 +0.00000000000000e+00 +4.87506255429300e-02 +0.00000000000000e+00 +0.00000000000000e+00 +2.94700000000000e+02 +2.94700000000000e+02 +4.87506255429300e-02 +3.06149372485121e+05 +0.00000000000000e+00 +4.26413778405081e+03 +0.00000000000000e+00
+4.68176715100000e-02 +2.18081623300000e-02 +0.00000000000000e+00 +4.87547709143900e-02 +0.00000000000000e+00 +0.00000000000000e+00 +2.94700000000000e+02 +2.94700000000000e+02 +4.87547709143900e-02 +3.06149372485121e+05 +0.00000000000000e+00 +4.26450037293812e+03 +0.00000000000000e+00
+4.75981012000000e-02 +2.21716892000000e-02 +0.00000000000000e+00 +4.87618689523900e-02 +0.00000000000000e+00 +0.00000000000000e+00 +2.94700000000000e+02 +2.94700000000000e+02 +4.87618689523900e-02 +3.06149372485121e+05 +0.00000000000000e+00 +4.26512122675674e+03 +0.00000000000000e+00
+4.83785308900000e-02 +2.25352142000000e-02 +0.00000000000000e+00 +4.87728718482900e-02 +0.00000000000000e+00 +0.00000000000000e+00 +2.94700000000000e+02 +2.94700000000000e+02 +4.87728718482900e-02 +3.06149372485121e+05 +0.00000000000000e+00 +4.26608363213347e+03 +0.00000000000000e+00
+4.91589605800000e-02 +2.28987373400000e-02 +0.00000000000000e+00 +4.87910581538500e-02 +0.00000000000000e+00 +0.00000000000000e+00 +2.94700000000000e+02 +2.94700000000000e+02 +4.87910581538500e-02 +3.06149372485121e+05 +0.00000000000000e+00 +4.26767435864881e+03 +0.00000000000000e+00
+4.99393902700000e-02 +2.32622586200000e-02 +0.00000000000000e+00 +4.88149800383100e-02 +0.00000000000000e+00 +0.00000000000000e+00 +2.94700000000000e+02 +2.94700000000000e+02 +4.88149800383100e-02 +3.06149372485121e+05 +0.00000000000000e+00 +4.26976676690523e+03 +0.00000000000000e+00
+5.07198199600000e-02 +2.36257780300000e-02 +0.00000000000000e+00 +4.88396845800000e-02 +0.00000000000000e+00 +0.00000000000000e+00 +2.94700000000000e+02 +2.94700000000000e+02 +4.88396845800000e-02 +3.06149372485121e+05 +0.00000000000000e+00 +4.27192763291433e+03 +0.00000000000000e+00
+5.15002496500000e-02 +2.39892955900000e-02 +0.00000000000000e+00 +4.88669088596300e-02 +0.00000000000000e+00 +0.00000000000000e+00 +2.94700000000000e+02 +2.94700000000000e+02 +4.88669088596300e-02 +3.06149372485121e+05 +0.00000000000000e+00 +4.27430889629548e+03 +0.00000000000000e+00
+5.22806793500000e-02 +2.43528112800000e-02 +0.00000000000000e+00 +4.89016659894300e-02 +0.00000000000000e+00 +0.00000000000000e+00 +2.94700000000000e+02 +2.94700000000000e+02 +4.89016659894300e-02 +3.06149372485121e+05 +0.00000000000000e+00 +4.27734904580730e+03 +0.00000000000000e+00
+5.30611090400000e-02 +2.47163251000000e-02 +0.00000000000000e+00 +4.89469878917300e-02 +0.00000000000000e+00 +0.00000000000000e+00 +2.94700000000000e+02 +2.94700000000000e+02 +4.89469878917300e-02 +3.06149372485121e+05 +0.00000000000000e+00 +4.28131327875591e+03 +0.00000000000000e+00
+5.38415387300000e-02 +2.50798389300000e-02 +0.00000000000000e+00 +4.89972198453600e-02 +0.00000000000000e+00 +0.00000000000000e+00 +2.94700000000000e+02 +2.94700000000000e+02 +4.89972198453600e-02 +3.06149372485121e+05 +0.00000000000000e+00 +4.28570698589413e+03 +0.00000000000000e+00
+5.46219721400000e-02 +2.54433490300000e-02 +0.00000000000000e+00 +4.90502196583100e-02 +0.00000000000000e+00 +0.00000000000000e+00 +2.94700000000000e+02 +2.94700000000000e+02 +4.90502196583100e-02 +3.06149372485121e+05 +0.00000000000000e+00 +4.29034279317723e+03 +0.00000000000000e+00
+5.54024018300000e-02 +2.58068591400000e-02 +0.00000000000000e+00 +4.91065849909900e-02 +0.00000000000000e+00 +0.00000000000000e+00 +2.94700000000000e+02 +2.94700000000000e+02 +4.91065849909900e-02 +3.06149372485121e+05 +0.00000000000000e+00 +4.29527297698748e+03 +0.00000000000000e+00
+5.61828352500000e-02 +2.61703655100000e-02 +0.00000000000000e+00 +4.91709991242500e-02 +0.00000000000000e+00 +0.00000000000000e+00 +2.94700000000000e+02 +2.94700000000000e+02 +4.91709991242500e-02 +3.06149372485121e+05 +0.00000000000000e+00 +4.30090717627009e+03 +0.00000000000000e+00
+5.69632649400000e-02 +2.65338700300000e-02 +0.00000000000000e+00 +4.92448527989600e-02 +0.00000000000000e+00 +0.00000000000000e+00 +2.94700000000000e+02 +2.94700000000000e+02 +4.92448527989600e-02 +3.06149372485121e+05 +0.00000000000000e+00 +4.30736703686295e+03 +0.00000000000000e+00
+5.77436983600000e-02 +2.68973745400000e-02 +0.00000000000000e+00 +4.93217583966100e-02 +0.00000000000000e+00 +0.00000000000000e+00 +2.94700000000000e+02 +2.94700000000000e+02 +4.93217583966100e-02 +3.06149372485121e+05 +0.00000000000000e+00 +4.31409384418269e+03 +0.00000000000000e+00
+5.85241317700000e-02 +2.72608753300000e-02 +0.00000000000000e+00 +4.93937126814200e-02 +0.00000000000000e+00 +0.00000000000000e+00 +2.94700000000000e+02 +2.94700000000000e+02 +4.93937126814200e-02 +3.06149372485121e+05 +0.00000000000000e+00 +4.32038756823578e+03 +0.00000000000000e+00
+5.93045651900000e-02 +2.76243761200000e-02 +0.00000000000000e+00 +4.94525207787100e-02 +0.00000000000000e+00 +0.00000000000000e+00 +2.94700000000000e+02 +2.94700000000000e+02 +4.94525207787100e-02 +3.06149372485121e+05 +0.00000000000000e+00 +4.32553141668633e+03 +0.00000000000000e+00
+6.00849948800000e-02 +2.79878731800000e-02 +0.00000000000000e+00 +4.94969990228400e-02 +0.00000000000000e+00 +0.00000000000000e+00 +2.94700000000000e+02 +2.94700000000000e+02 +4.94969990228400e-02 +3.06149372485121e+05 +0.00000000000000e+00 +4.32942185622943e+03 +0.00000000000000e+00
+6.08654283000000e-02 +2.83513683800000e-02 +0.00000000000000e+00 +4.95300784908200e-02 +0.00000000000000e+00 +0.00000000000000e+00 +2.94700000000000e+02 +2.94700000000000e+02 +4.95300784908200e-02 +3.06149372485121e+05 +0.00000000000000e+00 +4.33231526339537e+03 +0.00000000000000e+00
+6.16458654400000e-02 +2.87148617200000e-02 +0.00000000000000e+00 +4.95699022730700e-02 +0.00000000000000e+00 +0.00000000000000e+00 +2.94700000000000e+02 +2.94700000000000e+02 +4.95699022730700e-02 +3.06149372485121e+05 +0.00000000000000e+00 +4.33579858474161e+03 +0.00000000000000e+00
+6.24262988600000e-02 +2.90783550600000e-02 +0.00000000000000e+00 +4.96446030697100e-02 +0.00000000000000e+00 +0.00000000000000e+00 +2.94700000000000e+02 +2.94700000000000e+02 +4.96446030697100e-02 +3.06149372485121e+05 +0.00000000000000e+00 +4.34233254170941e+03 +0.00000000000000e+00
+6.32067322700000e-02 +2.94418446700000e-02 +0.00000000000000e+00 +4.99770977092700e-02 +0.00000000000000e+00 +0.00000000000000e+00 +2.94700000000000e+02 +2.94700000000000e+02 +4.99770977092700e-02 +3.06149372485121e+05 +0.00000000000000e+00 +4.37141530607915e+03 +0.00000000000000e+00
+6.39871656900000e-02 +2.98053324200000e-02 +0.00000000000000e+00 +5.14334019719200e-02 +0.00000000000000e+00 +0.00000000000000e+00 +2.94700000000000e+02 +2.94700000000000e+02 +5.14334019719200e-02 +3.06149372485121e+05 +0.00000000000000e+00 +4.49879586709311e+03 +0.00000000000000e+00
+6.47675991100000e-02 +3.01688164500000e-02 +1.00000000000000e-14 +5.79597307608800e-02 +0.00000000000000e+00 +0.00000000000000e+00 +2.94700000000000e+02 +2.94700000000000e+02 +5.79597307608900e-02 +3.06149372490943e+05 +0.00000000000000e+00 +5.06964321254352e+03 +0.00000000000000e+00
+6.55480399700000e-02 +3.05323004700000e-02 +4.10000000000000e-13 +7.31711417276000e-02 +0.00000000000000e+00 +0.00000000000000e+00 +2.94700000000000e+02 +2.94700000000000e+02 +7.31711417280100e-02 +3.06149372674204e+05 +0.00000000000000e+00 +6.40016054504847e+03 +0.00000000000000e+00
+6.63284733900000e-02 +3.08957826300000e-02 +4.73000000000000e-12 +9.01342407693800e-02 +0.00000000000000e+00 +0.00000000000000e+00 +2.94700000000000e+02 +2.94700000000000e+02 +9.01342407741100e-02 +3.06149374255965e+05 +0.00000000000000e+00 +7.88389518003885e+03 +0.00000000000000e+00
+6.71089068100000e-02 +3.12592610700000e-02 +1.40700000000000e-11 +9.76807980667300e-02 +0.00000000000000e+00 +0.00000000000000e+00 +2.94700000000000e+02 +2.94700000000000e+02 +9.76807980808000e-02 +3.06149377345765e+05 +0.00000000000000e+00 +8.54398025243349e+03 +0.00000000000000e+00
+6.78893476700000e-02 +3.16227376500000e-02 +2.01600000000000e-11 +1.00388543062180e-01 +0.00000000000000e+00 +0.00000000000000e+00 +2.94700000000000e+02 +2.94700000000000e+02 +1.00388543082340e-01 +3.06149379261775e+05 +0.00000000000000e+00 +8.78082229636669e+03 +0.00000000000000e+00
+6.86697810900000e-02 +3.19862142200000e-02 +2.38300000000000e-11 +1.01713392745550e-01 +0.00000000000000e+00 +0.00000000000000e+00 +2.94700000000000e+02 +2.94700000000000e+02 +1.01713392769380e-01 +3.06149380391085e+05 +0.00000000000000e+00 +8.89670474015954e+03 +0.00000000000000e+00
+6.94502219600000e-02 +3.23496870700000e-02 +2.62100000000000e-11 +1.02194367516570e-01 +0.00000000000000e+00 +0.00000000000000e+00 +2.94700000000000e+02 +2.94700000000000e+02 +1.02194367542780e-01 +3.06149381139761e+05 +0.00000000000000e+00 +8.93877482011724e+03 +0.00000000000000e+00
+7.02306553700000e-02 +3.27131561900000e-02 +2.78200000000000e-11 +1.02164485024820e-01 +0.00000000000000e+00 +0.00000000000000e+00 +2.94700000000000e+02 +2.94700000000000e+02 +1.02164485052640e-01 +3.06149381674076e+05 +0.00000000000000e+00 +8.93616104753477e+03 +0.00000000000000e+00
+7.10110962400000e-02 +3.30766253200000e-02 +2.89800000000000e-11 +1.01829355056210e-01 +0.00000000000000e+00 +0.00000000000000e+00 +2.94700000000000e+02 +2.94700000000000e+02 +1.01829355085190e-01 +3.06149382088727e+05 +0.00000000000000e+00 +8.90684777542985e+03 +0.00000000000000e+00
+7.17915371100000e-02 +3.34400907200000e-02 +2.98500000000000e-11 +1.01332288659850e-01 +0.00000000000000e+00 +0.00000000000000e+00 +2.94700000000000e+02 +2.94700000000000e+02 +1.01332288689700e-01 +3.06149382425557e+05 +0.00000000000000e+00 +8.86337018779122e+03 +0.00000000000000e+00
+7.25719779700000e-02 +3.38035523900000e-02 +3.05400000000000e-11 +1.00773867591320e-01 +0.00000000000000e+00 +0.00000000000000e+00 +2.94700000000000e+02 +2.94700000000000e+02 +1.00773867621860e-01 +3.06149382711693e+05 +0.00000000000000e+00 +8.81452600691507e+03 +0.00000000000000e+00
+7.33524188400000e-02 +3.41670140600000e-02 +3.11000000000000e-11 +1.00225589385090e-01 +0.00000000000000e+00 +0.00000000000000e+00 +2.94700000000000e+02 +2.94700000000000e+02 +1.00225589416190e-01 +3.06149382956183e+05 +0.00000000000000e+00 +8.76656900565521e+03 +0.00000000000000e+00
+7.41328597100000e-02 +3.45304720100000e-02 +3.15800000000000e-11 +9.97339440240600e-02 +0.00000000000000e+00 +0.00000000000000e+00 +2.94700000000000e+02 +2.94700000000000e+02 +9.97339440556400e-02 +3.06149383170209e+05 +0.00000000000000e+00 +8.72356558707586e+03 +0.00000000000000e+00
+7.49133005700000e-02 +3.48939262300000e-02 +3.20000000000000e-11 +9.93353777063100e-02 +0.00000000000000e+00 +0.00000000000000e+00 +2.94700000000000e+02 +2.94700000000000e+02 +9.93353777383100e-02 +3.06149383355758e+05 +0.00000000000000e+00 +8.68870364074269e+03 +0.00000000000000e+00
+7.56937414400000e-02 +3.52573730100000e-02 +3.23900000000000e-11 +9.90558157820500e-02 +0.00000000000000e+00 +0.00000000000000e+00 +2.94700000000000e+02 +2.94700000000000e+02 +9.90558158144400e-02 +3.06149383519297e+05 +0.00000000000000e+00 +8.66425081480217e+03 +0.00000000000000e+00
+7.64741897600000e-02 +3.56208160500000e-02 +3.27500000000000e-11 +9.89051102381200e-02 +0.00000000000000e+00 +0.00000000000000e+00 +2.94700000000000e+02 +2.94700000000000e+02 +9.89051102708700e-02 +3.06149383658937e+05 +0.00000000000000e+00 +8.65106884649077e+03 +0.00000000000000e+00
+7.72546306300000e-02 +3.59842553700000e-02 +3.31000000000000e-11 +9.88878789126200e-02 +0.00000000000000e+00 +0.00000000000000e+00 +2.94700000000000e+02 +2.94700000000000e+02 +9.88878789457200e-02 +3.06149383780320e+05 +0.00000000000000e+00 +8.64956165058650e+03 +0.00000000000000e+00
+7.80350863900000e-02 +3.63476797900000e-02 +3.34500000000000e-11 +9.90023270603200e-02 +0.00000000000000e+00 +0.00000000000000e+00 +2.94700000000000e+02 +2.94700000000000e+02 +9.90023270937700e-02 +3.06149383886560e+05 +0.00000000000000e+00 +8.65957224365012e+03 +0.00000000000000e+00
+7.88155421600000e-02 +3.67110967600000e-02 +3.38000000000000e-11 +9.92356780885400e-02 +0.00000000000000e+00 +0.00000000000000e+00 +2.94700000000000e+02 +2.94700000000000e+02 +9.92356781223400e-02 +3.06149383978767e+05 +0.00000000000000e+00 +8.67998307793754e+03 +0.00000000000000e+00
+7.95959979300000e-02 +3.70744951100000e-02 +3.41500000000000e-11 +9.95734781092000e-02 +0.00000000000000e+00 +0.00000000000000e+00 +2.94700000000000e+02 +2.94700000000000e+02 +9.95734781433500e-02 +3.06149384058388e+05 +0.00000000000000e+00 +8.70952989540896e+03 +0.00000000000000e+00
+8.03764686000000e-02 +3.74378748200000e-02 +3.45000000000000e-11 +9.99908516583300e-02 +0.00000000000000e+00 +0.00000000000000e+00 +2.94700000000000e+02 +2.94700000000000e+02 +9.99908516928300e-02 +3.06149384128198e+05 +0.00000000000000e+00 +8.74603687976193e+03 +0.00000000000000e+00