 TITLE="parade results"
 VARIABLES="wavelength [A]"
 "emission coefficient [W/m3/str/m]"
 "absorption coefficient [1/m]"
 "conditional distribution [-]"
 ZONE I=         2000 , F=POINT
  2.0000000000E+03  1.3890671373E+12  1.0845680839E-01  0.0000000000E+00
  2.0007506568E+03  1.3121751748E+12  1.0232261800E-01  3.9991757076E-04
  2.0015018773E+03  6.0415002622E+11  4.7019673893E-02  6.5298259768E-04
  2.0022536622E+03  1.1466900671E+12  8.9082222967E-02  8.9983613571E-04
  2.0030060120E+03  1.4694575352E+12  1.1394502785E-01  1.3092102517E-03
  2.0037589275E+03  9.3501670318E+11  7.2356882803E-02  1.6662571566E-03
  2.0045124091E+03  1.2593510645E+12  9.7262232312E-02  1.9860884092E-03
  2.0052664577E+03  1.2300381370E+12  9.4787173677E-02  2.3563064838E-03
  2.0060210738E+03  1.3964497854E+12  1.0742921766E-01  2.7587800107E-03
  2.0067762580E+03  1.0959243871E+12  8.4101408455E-02  3.1275285432E-03
  2.0075320110E+03  1.4623046333E+12  1.1201866086E-01  3.5065277592E-03
  2.0082883335E+03  1.3475385924E+12  1.0299881439E-01  3.9335427121E-03
  2.0090452261E+03  1.0802514646E+12  8.2404234127E-02  4.2942875610E-03
  2.0098026895E+03  8.8012592027E+11  6.7024239493E-02  4.5871521062E-03
  2.0105607242E+03  1.9602480411E+12  1.4898654519E-01  5.0707391115E-03
  2.0113193309E+03  6.7317360711E+11  5.1058916782E-02  5.4630852540E-03
  2.0120785103E+03  1.8899770830E+12  1.4310665771E-01  5.8442234592E-03
  2.0128382631E+03  8.1115401539E+11  6.1288358772E-02  6.2492905913E-03
  2.0135985898E+03  2.0058515333E+12  1.5126858683E-01  6.6763206269E-03
  2.0143594911E+03  5.5504972914E+11  4.1778404838E-02  7.0581186671E-03
  2.0151209677E+03  1.9550016519E+12  1.4686644307E-01  7.4281464877E-03
  2.0158830203E+03  1.0550273223E+12  7.9090207094E-02  7.8867387454E-03
  2.0166456494E+03  1.9637531712E+12  1.4694767511E-01  8.3389611111E-03
  2.0174088558E+03  1.2075869239E+12  9.0128750272E-02  8.8261274344E-03
  2.0181726401E+03  1.3366669803E+12  9.9603281728E-02  9.2079382965E-03
  2.0189370029E+03  1.5237419667E+12  1.1332718453E-01  9.6475061245E-03
  2.0197019449E+03  1.3781090634E+12  1.0232605709E-01  1.0087104769E-02
  2.0204674668E+03  1.4219626243E+12  1.0534142697E-01  1.0505572413E-02
  2.0212335693E+03  1.6173853475E+12  1.1962562358E-01  1.0973402279E-02
  2.0220002529E+03  1.4711730386E+12  1.0855429519E-01  1.1445100560E-02
  2.0227675183E+03  1.2956354743E+12  9.5457797806E-02  1.1863788314E-02
  2.0235353663E+03  2.2396861588E+12  1.6463942685E-01  1.2448721292E-02
  2.0243037975E+03  1.2193110559E+12  8.9430866486E-02  1.2978970705E-02
  2.0250728125E+03  1.6890212094E+12  1.2368298537E-01  1.3407986942E-02
  2.0258424120E+03  1.6236918703E+12  1.1864981163E-01  1.3913763465E-02
  2.0266125966E+03  1.4413811435E+12  1.0516986987E-01  1.4354400505E-02
  2.0273833671E+03  2.2455831000E+12  1.6345035046E-01  1.4950916644E-02
  2.0281547242E+03  1.6264144712E+12  1.1811832844E-01  1.5552120764E-02
  2.0289266684E+03  1.4735422772E+12  1.0686606909E-01  1.6008169416E-02
  2.0296992004E+03  1.9484024284E+12  1.4096563607E-01  1.6555789494E-02
  2.0304723210E+03  1.3891513194E+12  1.0033684750E-01  1.7061297475E-02
  2.0312460307E+03  2.1335667356E+12  1.5383872195E-01  1.7597979156E-02
  2.0320203304E+03  1.6410832233E+12  1.1805803168E-01  1.8185511104E-02
  2.0327952205E+03  1.5146860388E+12  1.0880481327E-01  1.8667804039E-02
  2.0335707019E+03  2.4176509727E+12  1.7331846341E-01  1.9298550075E-02
  2.0343467752E+03  2.1700635598E+12  1.5517229762E-01  2.0022663744E-02
  2.0351234411E+03  1.3557878476E+12  9.6747621027E-02  2.0535825848E-02
  2.0359007002E+03  1.5967446944E+12  1.1380604706E-01  2.0975768532E-02
  2.0366785532E+03  1.7733037652E+12  1.2610482429E-01  2.1497571250E-02
  2.0374570009E+03  1.7623528437E+12  1.2504407548E-01  2.2040402697E-02
  2.0382360438E+03  1.8738388403E+12  1.3276303985E-01  2.2613033578E-02
  2.0390156828E+03  1.4405271289E+12  1.0187012082E-01  2.3090485839E-02
  2.0397959184E+03  2.2641196902E+12  1.5976515756E-01  2.3657690469E-02
  2.0405767513E+03  2.0538957725E+12  1.4462641699E-01  2.4334457951E-02
  2.0413581823E+03  1.9598984652E+12  1.3769974299E-01  2.4961902410E-02
  2.0421402120E+03  1.5211816180E+12  1.0667288022E-01  2.5472336814E-02
  2.0429228411E+03  2.1133053830E+12  1.4795459661E-01  2.6039095193E-02
  2.0437060703E+03  1.2251164466E+12  8.5631023347E-02  2.6550789799E-02
  2.0444899003E+03  2.1306534659E+12  1.4863932697E-01  2.7058456231E-02
  2.0452743318E+03  2.1030502187E+12  1.4645041518E-01  2.7713455740E-02
  2.0460593654E+03  1.8760615299E+12  1.3038263662E-01  2.8316951061E-02
  2.0468450019E+03  2.1373001798E+12  1.4823586835E-01  2.8929275404E-02
  2.0476312420E+03  2.6492445737E+12  1.8335768640E-01  2.9702231498E-02
  2.0484180863E+03  1.9716175900E+12  1.3616568997E-01  3.0422234089E-02
  2.0492055356E+03  2.2602543514E+12  1.5579824948E-01  3.1077423524E-02
  2.0499935906E+03  1.7390693289E+12  1.1965387135E-01  3.1694729417E-02
  2.0507822519E+03  2.3604226749E+12  1.6209154199E-01  3.2326148145E-02
  2.0515715202E+03  2.3192607597E+12  1.5897816802E-01  3.3058931713E-02
  2.0523613963E+03  2.1112868084E+12  1.4441417520E-01  3.3748782017E-02
  2.0531518809E+03  1.9170612853E+12  1.3088861892E-01  3.4355051103E-02
  2.0539429746E+03  2.5614243909E+12  1.7459531262E-01  3.5067807868E-02
  2.0547346781E+03  2.6672027480E+12  1.8141253034E-01  3.5894479909E-02
  2.0555269923E+03  2.3788168636E+12  1.6145884013E-01  3.6661857887E-02
  2.0563199177E+03  2.9028550453E+12  1.9665774819E-01  3.7514585184E-02
  2.0571134551E+03  5.5857440389E+11  3.7780786404E-02  3.7978761070E-02
  2.0579076052E+03  1.1893970589E+12  8.0279613700E-02  3.8229391540E-02
  2.0587023687E+03  6.1490029214E+11  4.1425172088E-02  3.8516614632E-02
  2.0594977463E+03  9.1022824721E+11  6.1196700842E-02  3.8744986847E-02
  2.0602937387E+03  1.1669622737E+12  7.8326207618E-02  3.9092665261E-02
  2.0610903467E+03  5.9823632186E+11  4.0060921274E-02  3.9364294033E-02
  2.0618875709E+03  1.2923023119E+12  8.6361477972E-02  3.9659524064E-02
  2.0626854121E+03  8.7656584207E+11  5.8477533276E-02  4.0012089285E-02
  2.0634838710E+03  7.1120934490E+11  4.7349298583E-02  4.0245697884E-02
  2.0642829482E+03  1.1724507156E+12  7.7916625985E-02  4.0567298477E-02
  2.0650826446E+03  6.9118296848E+11  4.5841377242E-02  4.0858057190E-02
  2.0658829609E+03  1.3958063129E+12  9.2376438314E-02  4.1190392783E-02
  2.0666838976E+03  6.9080505946E+11  4.5653389272E-02  4.1528254285E-02
  2.0674854557E+03  7.7034295617E+11  5.0798196956E-02  4.1759245099E-02
  2.0682876358E+03  1.3515900397E+12  8.8968375170E-02  4.2125730227E-02
  2.0690904386E+03  7.6495699254E+11  5.0257610977E-02  4.2461158067E-02
  2.0698938649E+03  1.3247715565E+12  8.6843749600E-02  4.2791646659E-02
  2.0706979153E+03  7.8513206701E+11  5.1380312995E-02  4.3133621937E-02
  2.0715025907E+03  7.8707278587E+11  5.1412574979E-02  4.3383136178E-02
  2.0723078917E+03  1.3474930962E+12  8.7870568791E-02  4.3753966023E-02
  2.0731138190E+03  7.0551091273E+11  4.5912658731E-02  4.4077001819E-02
  2.0739203735E+03  1.5163993771E+12  9.8480918314E-02  4.4434186920E-02
  2.0747275558E+03  5.9005349326E+11  3.8255878513E-02  4.4774033118E-02
  2.0755353666E+03  1.0637023101E+12  6.8833066159E-02  4.5019075205E-02
  2.0763438068E+03  1.5251299742E+12  9.8515049585E-02  4.5468686128E-02
  2.0771528770E+03  5.9928919605E+11  3.8619739832E-02  4.5804836813E-02
  2.0779625780E+03  1.2765873656E+12  8.2127796300E-02  4.6095114802E-02
  2.0787729104E+03  1.0469024319E+12  6.7239030027E-02  4.6472874446E-02
  2.0795838752E+03  1.2432463628E+12  7.9665478970E-02  4.6840640491E-02
  2.0803954729E+03  9.0238358491E+11  5.7722966427E-02  4.7179557199E-02
  2.0812077043E+03  1.4395586508E+12  9.1881917435E-02  4.7555244725E-02
  2.0820205702E+03  1.0582344611E+12  6.7445446778E-02  4.7966773867E-02
  2.0828340714E+03  7.6620504835E+11  4.8737518653E-02  4.8228776629E-02
  2.0836482085E+03  1.6240247761E+12  1.0312201883E-01  4.8657997328E-02
  2.0844629823E+03  7.8321273216E+11  4.9625025018E-02  4.9046438634E-02
  2.0852783935E+03  1.5233287842E+12  9.6346221699E-02  4.9411576112E-02
  2.0860944430E+03  1.1134224177E+12  7.0274194153E-02  4.9841189122E-02
  2.0869111314E+03  1.4646983303E+12  9.2277546916E-02  5.0260914610E-02
  2.0877284595E+03  7.2084000659E+11  4.5329040629E-02  5.0605619589E-02
  2.0885464281E+03  1.6400460051E+12  1.0292907087E-01  5.0987246671E-02
  2.0893650379E+03  8.3735977451E+11  5.2461802925E-02  5.1386239499E-02
  2.0901842896E+03  1.8329078362E+12  1.1458714502E-01  5.1822999019E-02
  2.0910041841E+03  6.3329234646E+11  3.9520309791E-02  5.2221947511E-02
  2.0918247220E+03  1.6208658527E+12  1.0094594402E-01  5.2580069411E-02
  2.0926459042E+03  9.1303251213E+11  5.6767438949E-02  5.2994234000E-02
  2.0934677314E+03  1.6233118252E+12  1.0071325990E-01  5.3406640954E-02
  2.0942902043E+03  8.1684935826E+11  5.0589946260E-02  5.3800781759E-02
  2.0951133237E+03  1.6543395274E+12  1.0226331252E-01  5.4198237179E-02
  2.0959370904E+03  1.1206131784E+12  6.9144200050E-02  5.4654675336E-02
  2.0967615052E+03  1.5467498367E+12  9.5249966342E-02  5.5092435531E-02
  2.0975865687E+03  7.1171470762E+11  4.3747762550E-02  5.5451410591E-02
  2.0984122819E+03  1.7694724765E+12  1.0858048193E-01  5.5855128656E-02
  2.0992386453E+03  9.5742933363E+11  5.8637991540E-02  5.6303218393E-02
  2.1000656599E+03  1.7487572609E+12  1.0692319248E-01  5.6738649803E-02
  2.1008933263E+03  1.3741071801E+12  8.3820400857E-02  5.7258280805E-02
  2.1017216454E+03  1.4418225915E+12  8.7818430486E-02  5.7708889743E-02
  2.1025506179E+03  1.8559688140E+12  1.1277173933E-01  5.8284636329E-02
  2.1033802446E+03  9.2669460966E+11  5.6217855139E-02  5.8732728486E-02
  2.1042105263E+03  1.8726607654E+12  1.1339743549E-01  5.9189003693E-02
  2.1050414637E+03  1.0966650267E+12  6.6267403236E-02  5.9677397570E-02
  2.1058730577E+03  1.9155848905E+12  1.1560034711E-01  6.0163501380E-02
  2.1067053089E+03  1.7189150658E+12  1.0346182603E-01  6.0776620544E-02
  2.1075382182E+03  1.3289673666E+12  7.9869552910E-02  6.1254906321E-02
  2.1083717864E+03  1.7576837549E+12  1.0544232400E-01  6.1759214707E-02
  2.1092060142E+03  1.5961314053E+12  9.5552841345E-02  6.2318583271E-02
  2.1100409025E+03  1.4740316490E+12  8.8101336930E-02  6.2806548718E-02
  2.1108764520E+03  1.9929728490E+12  1.1887347582E-01  6.3406690999E-02
  2.1117126634E+03  1.4622848209E+12  8.7042901657E-02  6.3987912116E-02
  2.1125495376E+03  1.1546682509E+12  6.8638569651E-02  6.4405939487E-02
  2.1133870755E+03  1.3530970491E+12  8.0259755815E-02  6.4815497775E-02
  2.1142252776E+03  1.3854330274E+12  8.1993056574E-02  6.5268219985E-02
  2.1150641450E+03  9.2768305682E+11  5.4836428741E-02  6.5619323119E-02
  2.1159036782E+03  1.6167348429E+12  9.5365863142E-02  6.6035430815E-02
  2.1167438782E+03  1.5341280575E+12  9.0302837964E-02  6.6565565342E-02
  2.1175847458E+03  1.1612432563E+12  6.8210551045E-02  6.7001421304E-02
  2.1184262816E+03  1.1918832930E+12  6.9920366106E-02  6.7391977397E-02
  2.1192684866E+03  1.4986379462E+12  8.7750716709E-02  6.7847067626E-02
  2.1201113615E+03  1.5097868704E+12  8.8215475659E-02  6.8347180223E-02
  2.1209549072E+03  1.6582585852E+12  9.6699188968E-02  6.8884827207E-02
  2.1217991243E+03  1.4248204658E+12  8.2917532806E-02  6.9400014498E-02
  2.1226440138E+03  1.4404718939E+12  8.3671670847E-02  6.9877471593E-02
  2.1234895764E+03  1.1901343562E+12  6.9023051828E-02  7.0293347102E-02
  2.1243358130E+03  1.7617452545E+12  1.0197745613E-01  7.0788920399E-02
  2.1251827243E+03  1.3013426263E+12  7.5196700956E-02  7.1303651524E-02
  2.1260303111E+03  1.6522131051E+12  9.5294311862E-02  7.1791359994E-02
  2.1268785743E+03  1.6236321891E+12  9.3460654503E-02  7.2336022309E-02
  2.1277275146E+03  1.7166399240E+12  9.8625981946E-02  7.2902696067E-02
  2.1285771330E+03  1.5442307287E+12  8.8550714385E-02  7.3450646450E-02
  2.1294274301E+03  1.5275447430E+12  8.7449887483E-02  7.3965786935E-02
  2.1302784068E+03  1.6127275249E+12  9.2145119615E-02  7.4488315175E-02
  2.1311300640E+03  1.8597650121E+12  1.0607163826E-01  7.5089582212E-02
  2.1319824023E+03  1.4634527736E+12  8.3310280636E-02  7.5648598086E-02
  2.1328354228E+03  1.6849348613E+12  9.5752952776E-02  7.6169874896E-02
  2.1336891261E+03  1.8875540664E+12  1.0707554329E-01  7.6774236288E-02
  2.1345435131E+03  1.9886288775E+12  1.1256992553E-01  7.7438539206E-02
  2.1353985846E+03  1.6928041010E+12  9.5640369306E-02  7.8040107090E-02
  2.1362543414E+03  2.0834962282E+12  1.1749778391E-01  7.8688843913E-02
  2.1371107844E+03  9.7653408239E+11  5.4982983315E-02  7.9179583810E-02
  2.1379679144E+03  7.9832629670E+11  4.4853862462E-02  7.9472541954E-02
  2.1388257322E+03  8.7156211908E+11  4.8894353994E-02  7.9754292007E-02
  2.1396842387E+03  7.4748848729E+11  4.1840156677E-02  8.0026131589E-02
  2.1405434346E+03  9.8410120517E+11  5.5009283210E-02  8.0311399849E-02
  2.1414033208E+03  1.4381188090E+12  7.9989354756E-02  8.0722190057E-02
  2.1422638982E+03  2.7361847132E+13  1.5161988373E+00  8.5610372345E-02
  2.1431251675E+03  5.8507672476E+14  3.2413665402E+01  2.2190825290E-01
  2.1439871296E+03  2.1718082227E+12  1.2039887477E-01  3.2967636068E-01
  2.1448497854E+03  9.3273054476E+11  5.1648495405E-02  3.3016469910E-01
  2.1457131357E+03  1.1001700010E+12  6.0794725919E-02  3.3052393939E-01
  2.1465771812E+03  8.0604370575E+11  4.4464134542E-02  3.3084647206E-01
  2.1474419229E+03  1.1370194510E+12  6.2616527072E-02  3.3117896908E-01
  2.1483073616E+03  7.6389831051E+11  4.1989057842E-02  3.3150107920E-01
  2.1491734982E+03  1.2615921400E+12  6.9215951386E-02  3.3184889602E-01
  2.1500403334E+03  7.5972012089E+11  4.1598585970E-02  3.3219902629E-01
  2.1509078682E+03  9.3851941498E+11  5.1300296367E-02  3.3248235355E-01
  2.1517761033E+03  9.4388841694E+11  5.1501926291E-02  3.3280469533E-01
  2.1526450397E+03  1.1434489434E+12  6.2278402608E-02  3.3317657543E-01
  2.1535146782E+03  8.4689973891E+11  4.6029820552E-02  3.3351870990E-01
  2.1543850195E+03  9.9407701411E+11  5.3936537542E-02  3.3383237908E-01
  2.1552560647E+03  8.6066042733E+11  4.6604436779E-02  3.3415205083E-01
  2.1561278145E+03  9.3554605428E+11  5.0589446863E-02  3.3445593393E-01
  2.1570002698E+03  1.1471399938E+12  6.1897735814E-02  3.3483102842E-01
  2.1578734314E+03  7.7505621659E+11  4.1748722363E-02  3.3515938608E-01
  2.1587473002E+03  1.1734024672E+12  6.3086505200E-02  3.3549400253E-01
  2.1596218771E+03  8.8379690339E+11  4.7421418135E-02  3.3584990665E-01
  2.1604971629E+03  1.2096445025E+12  6.4802507950E-02  3.3621058460E-01
  2.1613731585E+03  9.6863072494E+11  5.1781558235E-02  3.3659340062E-01
  2.1622498648E+03  8.4510199085E+11  4.5110562958E-02  3.3689216395E-01
  2.1631272826E+03  1.2373541189E+12  6.5924967131E-02  3.3727069154E-01
  2.1640054127E+03  9.9956649939E+11  5.3148543963E-02  3.3766495133E-01
  2.1648842561E+03  9.1803908687E+11  4.8737887857E-02  3.3798357917E-01
  2.1657638137E+03  1.3131038260E+12  6.9571643234E-02  3.3839704476E-01
  2.1666440862E+03  7.9341319045E+11  4.1955683175E-02  3.3876689047E-01
  2.1675250745E+03  9.0428960148E+11  4.7737964964E-02  3.3905198814E-01
  2.1684067797E+03  1.0668048458E+12  5.6206715477E-02  3.3940357844E-01
  2.1692892024E+03  9.2457401489E+11  4.8615497239E-02  3.3975602633E-01
  2.1701723436E+03  6.8210760842E+11  3.5822127342E-02  3.4001129472E-01
  2.1710562042E+03  1.2872562776E+12  6.7464820615E-02  3.4035737844E-01
  2.1719407850E+03  8.5191869630E+11  4.4562729903E-02  3.4073895070E-01
  2.1728260870E+03  8.8279155017E+11  4.6089391161E-02  3.4103950112E-01
  2.1737121109E+03  9.9415797242E+11  5.1836712342E-02  3.4136725457E-01
  2.1745988578E+03  1.1138239877E+12  5.7955378766E-02  3.4174025488E-01
  2.1754863284E+03  1.0846778589E+12  5.6333334997E-02  3.4212783949E-01
  2.1763745237E+03  1.0142032756E+12  5.2566382493E-02  3.4249230758E-01
  2.1772634445E+03  1.0535799754E+12  5.4516356108E-02  3.4285451080E-01
  2.1781530918E+03  1.0047032091E+12  5.1891502437E-02  3.4321659773E-01
  2.1790434664E+03  9.8010990682E+11  5.0546503050E-02  3.4356514196E-01
  2.1799345692E+03  1.2025547778E+12  6.1896834162E-02  3.4396610045E-01
  2.1808264012E+03  8.3189966949E+11  4.2740433778E-02  3.4431996926E-01
  2.1817189632E+03  1.3268866365E+12  6.8053101398E-02  3.4469855510E-01
  2.1826122560E+03  1.0532210906E+12  5.3915400248E-02  3.4512339905E-01
  2.1835062807E+03  1.1736284685E+12  5.9967831280E-02  3.4551005032E-01
  2.1844010381E+03  1.3079622987E+12  6.6701169021E-02  3.4595921267E-01
  2.1852965291E+03  1.0599053007E+12  5.3953044539E-02  3.4637890242E-01
  2.1861927546E+03  1.0934362298E+12  5.5565140486E-02  3.4675952603E-01
  2.1870897155E+03  1.4324945607E+12  7.2668608292E-02  3.4722281323E-01
  2.1879874128E+03  1.2136131550E+12  6.1443532514E-02  3.4769538359E-01
  2.1888858472E+03  1.2769761289E+12  6.4529879541E-02  3.4813526067E-01
  2.1897850199E+03  1.1553694711E+12  5.8285260821E-02  3.4856702997E-01
  2.1906849315E+03  1.1908541679E+12  5.9970782968E-02  3.4898018984E-01
  2.1915855831E+03  1.2898195591E+12  6.4849683180E-02  3.4941880260E-01
  2.1924869756E+03  1.4577027340E+12  7.3144142804E-02  3.4992496117E-01
  2.1933891099E+03  1.0273511668E+12  5.1459267248E-02  3.5037146848E-01
  2.1942919868E+03  9.0196082461E+11  4.5103022211E-02  3.5070878324E-01
  2.1951956074E+03  9.8699519334E+11  4.9255609642E-02  3.5104535756E-01
  2.1960999725E+03  8.6605726280E+11  4.3131790552E-02  3.5137646923E-01
  2.1970050831E+03  9.1150967131E+11  4.5336899547E-02  3.5168972142E-01
  2.1979109401E+03  1.0638084253E+12  5.2804528690E-02  3.5205030060E-01
  2.1988175443E+03  9.5830567581E+11  4.7477930103E-02  3.5241725312E-01
  2.1997248968E+03  7.4919689049E+11  3.7064688687E-02  3.5270672644E-01
  2.2006329985E+03  1.0800912623E+12  5.3333031265E-02  3.5303002733E-01
  2.2015418502E+03  1.1605249357E+12  5.7190192351E-02  3.5344182608E-01
  2.2024514530E+03  9.0022448898E+11  4.4289321347E-02  3.5380228163E-01
  2.2033618077E+03  9.4907749906E+11  4.6611605498E-02  3.5413513166E-01
  2.2042729152E+03  9.7070379924E+11  4.7590533046E-02  3.5447866246E-01
  2.2051847766E+03  1.0406109431E+12  5.0930693976E-02  3.5483815431E-01
  2.2060973927E+03  1.1850562320E+12  5.7881176987E-02  3.5525009288E-01
  2.2070107646E+03  9.5127240043E+11  4.6380947984E-02  3.5563438726E-01
  2.2079248930E+03  1.1327191691E+12  5.5134037137E-02  3.5600745338E-01
  2.2088397790E+03  1.0753146958E+12  5.2246775512E-02  3.5641139806E-01
  2.2097554235E+03  8.8921095523E+11  4.3125137750E-02  3.5674595555E-01
  2.2106718275E+03  1.3754293177E+12  6.6597809053E-02  3.5717822530E-01
  2.2115889918E+03  1.0988949231E+12  5.3099901944E-02  3.5763477929E-01
  2.2125069175E+03  9.9039440965E+11  4.7772686902E-02  3.5800453812E-01
  2.2134256055E+03  1.1633596460E+12  5.6026545978E-02  3.5839656054E-01
  2.2143450568E+03  9.3612353096E+11  4.5004514635E-02  3.5877158503E-01
  2.2152652722E+03  1.4871277138E+12  7.1355068866E-02  3.5921539113E-01
  2.2161862528E+03  9.9353847478E+11  4.7587511242E-02  3.5966920821E-01
  2.2171079994E+03  1.3330585884E+12  6.3740590930E-02  3.6008874656E-01
  2.2180305132E+03  1.0640295979E+12  5.0777896058E-02  3.6052921348E-01
  2.2189537949E+03  1.1186516172E+12  5.3300115803E-02  3.6092373882E-01
  2.2198778456E+03  1.0423370888E+12  4.9578735520E-02  3.6131509763E-01
  2.2208026663E+03  1.2603766644E+12  5.9839478423E-02  3.6174941060E-01
  2.2217282578E+03  1.0076238289E+12  4.7760877793E-02  3.6217111553E-01
  2.2226546213E+03  7.2104122694E+11  3.4111896154E-02  3.6247904588E-01
  2.2235817575E+03  6.9407417893E+11  3.2775255090E-02  3.6273772108E-01
  2.2245096675E+03  6.6994450376E+11  3.1576952173E-02  3.6298382515E-01
  2.2254383524E+03  7.6144303756E+11  3.5835478864E-02  3.6325342525E-01
  2.2263678129E+03  6.0947679960E+11  2.8634378745E-02  3.6350256836E-01
  2.2272980501E+03  8.4330915545E+11  3.9545381913E-02  3.6376665915E-01
  2.2282290651E+03  8.5110052761E+11  3.9836061470E-02  3.6407778821E-01
  2.2291608587E+03  6.8060050031E+11  3.1800354914E-02  3.6435339817E-01
  2.2300934319E+03  7.0209573809E+11  3.2749909691E-02  3.6460771508E-01
  2.2310267857E+03  1.0280344276E+12  4.7862259358E-02  3.6495149900E-01
  2.2319609211E+03  5.2865089981E+11  2.4567709230E-02  3.6523820751E-01
  2.2328958392E+03  8.6166679416E+11  3.9977602970E-02  3.6548862053E-01
  2.2338315407E+03  7.4836450485E+11  3.4663016392E-02  3.6578801423E-01
  2.2347680268E+03  9.3451708129E+11  4.3205609399E-02  3.6609872350E-01
  2.2357052985E+03  8.2850924412E+11  3.8231233214E-02  3.6642587993E-01
  2.2366433566E+03  9.3381906170E+11  4.3019590303E-02  3.6675571454E-01
  2.2375822023E+03  5.8156759072E+11  2.6743629204E-02  3.6701116711E-01
  2.2385218365E+03  1.0448105172E+12  4.7974641238E-02  3.6731029542E-01
  2.2394622602E+03  8.3868236106E+11  3.8432009288E-02  3.6766649146E-01
  2.2404034744E+03  8.5938415055E+11  3.9311968326E-02  3.6798170776E-01
  2.2413454800E+03  6.7153192736E+11  3.0670625917E-02  3.6825475429E-01
  2.2422882782E+03  8.5150767528E+11  3.8824713510E-02  3.6853415022E-01
  2.2432318698E+03  9.0892753872E+11  4.1370089055E-02  3.6886547199E-01
  2.2441762560E+03  8.4687967082E+11  3.8479890488E-02  3.6918968928E-01
  2.2451214376E+03  1.0861519072E+12  4.9256678324E-02  3.6956765818E-01
  2.2460674157E+03  7.5769562810E+11  3.4297699816E-02  3.6991238706E-01
  2.2470141914E+03  9.5158277244E+11  4.3003959336E-02  3.7022931362E-01
  2.2479617655E+03  7.6664454966E+11  3.4590236918E-02  3.7055247233E-01
  2.2489101392E+03  8.2972683802E+11  3.7371433790E-02  3.7084712494E-01
  2.2498593134E+03  8.9735592176E+11  4.0344508111E-02  3.7117985689E-01
  2.2508092892E+03  6.6280808835E+11  2.9748933123E-02  3.7146196060E-01
  2.2517600676E+03  7.5542198564E+11  3.3844643597E-02  3.7172350973E-01
  2.2527116495E+03  8.0184988617E+11  3.5858216231E-02  3.7201998987E-01
  2.2536640361E+03  7.1337422364E+11  3.1841772927E-02  3.7230511710E-01
  2.2546172283E+03  7.2713878894E+11  3.2409183990E-02  3.7257592615E-01
  2.2555712271E+03  9.3234476782E+11  4.1476294972E-02  3.7289899196E-01
  2.2565260336E+03  7.9201085467E+11  3.5176040402E-02  3.7322954347E-01
  2.2574816488E+03  6.2571660309E+11  2.7738287848E-02  3.7348354004E-01
  2.2584380737E+03  8.8023997983E+11  3.8959663287E-02  3.7376671005E-01
  2.2593953094E+03  7.7077745723E+11  3.4054792749E-02  3.7408268668E-01
  2.2603533569E+03  7.5383020239E+11  3.3246574768E-02  3.7436861401E-01
  2.2613122172E+03  8.0525873177E+11  3.5455665797E-02  3.7466013744E-01
  2.2622718914E+03  9.6220545709E+11  4.2294541610E-02  3.7500759442E-01
  2.2632323804E+03  7.0909358857E+11  3.1105410587E-02  3.7532529962E-01
  2.2641936854E+03  7.9661069055E+11  3.4895030763E-02  3.7560871923E-01
  2.2651558074E+03  6.7296451481E+11  2.9424831339E-02  3.7588424492E-01
  2.2661187473E+03  9.7198927522E+11  4.2426841264E-02  3.7620005540E-01
  2.2670825064E+03  6.3234329244E+11  2.7550980035E-02  3.7650557533E-01
  2.2680470855E+03  8.9638272562E+11  3.8990220615E-02  3.7679397400E-01
  2.2690124858E+03  7.0894129858E+11  3.0784712906E-02  3.7710060828E-01
  2.2699787083E+03  9.1220207582E+11  3.9542741777E-02  3.7740933007E-01
  2.2709457540E+03  7.3741476413E+11  3.1906221745E-02  3.7772758825E-01
  2.2719136241E+03  7.1257042794E+11  3.0785578048E-02  3.7800437553E-01
  2.2728823195E+03  9.3198870919E+11  4.0185285141E-02  3.7833465908E-01
  2.2738518413E+03  6.4575743624E+11  2.7801211121E-02  3.7863590242E-01
  2.2748221906E+03  8.9401855908E+11  3.8415211031E-02  3.7892818178E-01
  2.2757933684E+03  7.5758272056E+11  3.2497016310E-02  3.7924647792E-01
  2.2767653759E+03  8.8459149574E+11  3.7882249699E-02  3.7956276539E-01
  2.2777382139E+03  6.5535701383E+11  2.8019706983E-02  3.7985290939E-01
  2.2787118837E+03  1.1163659544E+12  4.7650882845E-02  3.8019286707E-01
  2.2796863863E+03  9.0320773754E+11  3.8479085658E-02  3.8059401614E-01
  2.2806617228E+03  5.5341740148E+11  2.3535842762E-02  3.8086144345E-01
  2.2816378941E+03  6.0222777821E+11  2.5573233211E-02  3.8108522957E-01
  2.2826149015E+03  6.1072452450E+11  2.5883760683E-02  3.8131895559E-01
  2.2835927460E+03  8.1833859069E+11  3.4632586123E-02  3.8161270245E-01
  2.2845714286E+03  4.6098595814E+11  1.9470591082E-02  3.8185769018E-01
  2.2855509504E+03  7.9084974539E+11  3.3347300478E-02  3.8209802366E-01
  2.2865313126E+03  5.2595196782E+11  2.2143421355E-02  3.8235237072E-01
  2.2875125161E+03  8.7312209470E+11  3.6692691224E-02  3.8262472994E-01
  2.2884945621E+03  5.0720531833E+11  2.1276869765E-02  3.8289396336E-01
  2.2894774517E+03  7.3871805661E+11  3.0947486614E-02  3.8313025927E-01
  2.2904611859E+03  6.9575348765E+11  2.9092167294E-02  3.8340367292E-01
  2.2914457659E+03  8.0449312504E+11  3.3578500874E-02  3.8369749267E-01
  2.2924311927E+03  6.0701613349E+11  2.5289931388E-02  3.8397299744E-01
  2.2934174674E+03  6.4359000696E+11  2.6775384198E-02  3.8420986050E-01
  2.2944045911E+03  8.7799327339E+11  3.6461390928E-02  3.8452408757E-01
  2.2953925649E+03  5.5731375088E+11  2.3106284590E-02  3.8480098960E-01
  2.2963813900E+03  9.6367626325E+11  3.9877286288E-02  3.8509903869E-01
  2.2973710674E+03  5.5422696338E+11  2.2893846174E-02  3.8539846878E-01
  2.2983615982E+03  7.6812060492E+11  3.1677539698E-02  3.8565019472E-01
  2.2993529835E+03  7.6376421931E+11  3.1446289198E-02  3.8594972042E-01
  2.3003452244E+03  7.2695260584E+11  2.9881498670E-02  3.8623607608E-01
  2.3013383221E+03  8.5502999772E+11  3.5082554830E-02  3.8655597424E-01
  2.3023322776E+03  6.7517822581E+11  2.7656496130E-02  3.8685735190E-01
  2.3033270920E+03  7.1768241196E+11  2.9347332297E-02  3.8713075235E-01
  2.3043227666E+03  5.3023589128E+11  2.1646192567E-02  3.8736150006E-01
  2.3053193023E+03  7.8043640790E+11  3.1810963209E-02  3.8761601806E-01
  2.3063167003E+03  7.8094354730E+11  3.1774467059E-02  3.8792316246E-01
  2.3073149618E+03  5.6595804695E+11  2.2989434144E-02  3.8817492528E-01
  2.3083140878E+03  7.6029451223E+11  3.0834846770E-02  3.8843330172E-01
  2.3093140794E+03  7.2551185250E+11  2.9370810671E-02  3.8872323438E-01
  2.3103149379E+03  7.8529617959E+11  3.1735610382E-02  3.8902243963E-01
  2.3113166643E+03  6.9084483698E+11  2.7874462743E-02  3.8931493628E-01
  2.3123192597E+03  6.9857832461E+11  2.8137511997E-02  3.8958967873E-01
  2.3133227253E+03  5.4246241454E+11  2.1811503962E-02  3.8983249076E-01
  2.3143270622E+03  4.7128419573E+11  1.8916530461E-02  3.9002632190E-01
  2.3153322716E+03  6.1155891072E+11  2.4511296104E-02  3.9024274914E-01
  2.3163383546E+03  4.3405771231E+11  1.7362373588E-02  3.9044714669E-01
  2.3173453123E+03  7.6138119862E+11  3.0410148940E-02  3.9068689168E-01
  2.3183531458E+03  4.4202781744E+11  1.7620505367E-02  3.9092939777E-01
  2.3193618564E+03  5.7084727152E+11  2.2726971899E-02  3.9112491599E-01
  2.3203714452E+03  6.1219279997E+11  2.4328626832E-02  3.9136457768E-01
  2.3213819132E+03  5.2994672713E+11  2.1025906818E-02  3.9159233245E-01
  2.3223932617E+03  5.6324610007E+11  2.2310070389E-02  3.9180837880E-01
  2.3234054918E+03  6.0166783244E+11  2.3790077188E-02  3.9204271343E-01
  2.3244186047E+03  5.8677548115E+11  2.3162592033E-02  3.9228106831E-01
  2.3254326014E+03  6.6631170374E+11  2.6257703239E-02  3.9254109914E-01
  2.3264474833E+03  4.6264377415E+11  1.8198616929E-02  3.9276559248E-01
  2.3274632513E+03  6.3142893948E+11  2.4802881233E-02  3.9298347237E-01
  2.3284799068E+03  5.0521793221E+11  1.9809909809E-02  3.9320916602E-01
  2.3294974508E+03  8.0741987027E+11  3.1608186704E-02  3.9347365618E-01
  2.3305158846E+03  6.1707951385E+11  2.4112072073E-02  3.9376508334E-01
  2.3315352092E+03  6.0324934945E+11  2.3537875838E-02  3.9401041574E-01
  2.3325554259E+03  7.1017464048E+11  2.7659420272E-02  3.9428000678E-01
  2.3335765358E+03  6.5859089133E+11  2.5607067013E-02  3.9455814174E-01
  2.3345985401E+03  6.1792152529E+11  2.3986255851E-02  3.9481171838E-01
  2.3356214400E+03  6.8825720870E+11  2.6674867628E-02  3.9507424568E-01
  2.3366452367E+03  7.0609837960E+11  2.7320422214E-02  3.9535904660E-01
  2.3376699313E+03  6.2717399579E+11  2.4220159074E-02  3.9563467521E-01
  2.3386955250E+03  3.6451534534E+11  1.4058255472E-02  3.9581317070E-01
  2.3397220190E+03  7.5796814692E+11  2.9180132973E-02  3.9604076262E-01
  2.3407494145E+03  4.7391548323E+11  1.8213242582E-02  3.9629491921E-01
  2.3417777127E+03  5.9941551962E+11  2.2999509792E-02  3.9650736966E-01
  2.3428069147E+03  6.2433047183E+11  2.3911880237E-02  3.9675577300E-01
  2.3438370218E+03  4.5878481308E+11  1.7547174051E-02  3.9696462382E-01
  2.3448680352E+03  6.2428857039E+11  2.3835818526E-02  3.9718004091E-01
  2.3458999560E+03  7.4289852094E+11  2.8316595929E-02  3.9747138144E-01
  2.3469327854E+03  4.7527382266E+11  1.8083028038E-02  3.9771940131E-01
  2.3479665247E+03  6.0172439994E+11  2.2861334796E-02  3.9793483916E-01
  2.3490011751E+03  5.7736328943E+11  2.1897834911E-02  3.9817227004E-01
  2.3500367377E+03  6.4644181475E+11  2.4476638580E-02  3.9842967485E-01
  2.3510732138E+03  4.9630709850E+11  1.8762441367E-02  3.9866118872E-01
  2.3521106045E+03  6.8841159854E+11  2.5985240442E-02  3.9890147997E-01
  2.3531489111E+03  6.6124120526E+11  2.4913693935E-02  3.9917908636E-01
  2.3541881348E+03  5.9818927310E+11  2.2499565941E-02  3.9943260070E-01
  2.3552282769E+03  6.7055674110E+11  2.5180317732E-02  3.9969477247E-01
  2.3562693384E+03  4.9618717197E+11  1.8598389392E-02  3.9993517202E-01
  2.3573113208E+03  5.1987123138E+11  1.9458461997E-02  4.0014121511E-01
  2.3583542250E+03  6.2437054729E+11  2.3332999331E-02  4.0038396537E-01
  2.3593980525E+03  5.1302226341E+11  1.9139978070E-02  4.0061863630E-01
  2.3604428044E+03  5.8782499369E+11  2.1896204188E-02  4.0084295050E-01