TITLE = Unstructured grid data
VARIABLES =  "x0" "x1" "rho0" "rho1" "rho2" "rho3" "rho4" "rho5" "rho6" "u" "v" "T"
ZONE   T= "ZONE0 Quad", N=7029, E=6860, F=FEPOINT, ET=QUADRILATERAL, SOLUTIONTIME=0.00000000000000e+00	
-1.00000000000000e+00 +0.00000000000000e+00 +1.63080834466457e-12 +3.81164736600000e-05 +7.91616578000000e-04 +3.09466049650000e-05 +1.07406733150000e-04 +8.89696387750000e-08 +3.01263766600000e-03 +0.00000000000000e+00 +0.00000000000000e+00 +3.33984143050000e+03
-9.99700903900000e-01 +2.24355272900000e-02 +1.69679208844293e-12 +3.97482321497266e-05 +7.70197738518907e-04 +3.16730317764980e-05 +1.11019713935703e-04 +9.25694179079615e-08 +2.95241709969001e-03 +0.00000000000000e+00 +0.00000000000000e+00 +3.37817572605699e+03
-1.00020003300000e+00 +0.00000000000000e+00 +2.77102445071972e-12 +6.53266800245402e-05 +5.92905459257369e-04 +4.79847690406591e-05 +1.74375822693209e-04 +1.51174406940691e-07 +2.56746245153043e-03 +3.11017181869234e+01 +0.00000000000000e+00 +3.76569613772687e+03
-9.99900877500000e-01 +2.24427282800000e-02 +2.88522733912255e-12 +6.81509818912981e-05 +5.75075529769502e-04 +4.90681388999827e-05 +1.80159114886763e-04 +1.57404798576792e-07 +2.52583218932304e-03 +3.30422003931823e+01 +1.15901482855451e+01 +3.81927464134402e+03
-1.00042998800000e+00 +0.00000000000000e+00 +4.57998162742289e-12 +1.08989891009179e-04 +3.24167867222082e-04 +6.57825167179364e-05 +2.61914465553459e-04 +2.49862839224039e-07 +1.94172891196711e-03 +4.51569645196527e+01 +4.44089209850063e-16 +4.45354908194994e+03
-1.00013077300000e+00 +2.24510096000000e-02 +4.71853500825519e-12 +1.12418009631883e-04 +3.06878429608899e-04 +6.62850667422694e-05 +2.67055860890264e-04 +2.57421685047023e-07 +1.89840116299245e-03 +4.65889234335819e+01 +1.88325992550096e+01 +4.51549458791370e+03
-1.00069451300000e+00 +0.00000000000000e+00 +6.00450564927460e-12 +1.42748947902928e-04 +2.07201422525472e-04 +6.37493007451629e-05 +2.93223355444451e-04 +3.27578372816792e-07 +1.61899445163906e-03 +4.79187478867452e+01 -4.44089209850063e-16 +4.96114971059963e+03
-1.00039517900000e+00 +2.24605314400000e-02 +6.13618225206263e-12 +1.45844679070515e-04 +1.97029983320259e-04 +6.33522469038353e-05 +2.95574240984881e-04 +3.34762053660138e-07 +1.58922736067654e-03 +4.86025051740301e+01 +2.41252170450115e+01 +5.01119725147381e+03
-1.00099861600000e+00 +0.00000000000000e+00 +7.67070054079919e-12 +1.78779869398494e-04 +1.28562104863156e-04 +5.64525896278428e-05 +3.07975044732927e-04 +4.18478375538336e-07 +1.35887034117497e-03 +4.86617451150869e+01 +0.00000000000000e+00 +5.44131356326481e+03
-1.00069928200000e+00 +2.24714838000000e-02 +7.80728896251265e-12 +1.81668202521469e-04 +1.22637524115051e-04 +5.57414578271317e-05 +3.08743705156029e-04 +4.25930025302785e-07 +1.33771530014356e-03 +4.93768642705721e+01 +2.97887187197160e+01 +5.48218742482008e+03
-1.00134849500000e+00 +0.00000000000000e+00 +9.67032441155901e-12 +2.17412127198867e-04 +7.62439658464659e-05 +4.67333301850753e-05 +3.10856427866205e-04 +5.27568753755659e-07 +1.14064507837876e-03 +4.96018972372398e+01 -2.66453525910038e-15 +5.89932330596057e+03
-1.00104904200000e+00 +2.24840771400000e-02 +9.81206023537772e-12 +2.20060320809723e-04 +7.29119798506654e-05 +4.59860884270787e-05 +3.10699087341080e-04 +5.35301223778079e-07 +1.12523097635366e-03 +5.04783071553399e+01 +3.58326703751579e+01 +5.93260191198580e+03
-1.00175070800000e+00 +0.00000000000000e+00 +1.20367095831487e-11 +2.57797692239184e-04 +4.28524903094953e-05 +3.63160901894578e-05 +3.04688363655110e-04 +6.56667966991589e-07 +9.53096298546036e-04 +5.14441427839885e+01 -1.77635683940025e-15 +6.33784921771639e+03
-1.00145125400000e+00 +2.24985592100000e-02 +1.21798357809500e-11 +2.60130048615266e-04 +4.10749687152812e-05 +3.56571409763823e-05 +3.04013621602109e-04 +6.64476282630429e-07 +9.41635522683292e-04 +5.25273558206607e+01 +4.22526388675415e+01 +6.36508255453927e+03
-1.00221335900000e+00 +0.00000000000000e+00 +1.47672256516002e-11 +2.98366241386560e-04 +2.26937314165336e-05 +2.65209464815616e-05 +2.91816643491212e-04 +8.05632504563980e-07 +7.88751556178208e-04 +5.46849046545982e+01 +8.88178419700125e-16 +6.76447393459922e+03
-1.00191366700000e+00 +2.25152149800000e-02 +1.49066227506738e-11 +3.00307145700320e-04 +2.18066606606363e-05 +2.60111794584462e-05 +2.90902168316691e-04 +8.13237377678011e-07 +7.80105559951503e-04 +5.59900024760400e+01 +4.90358554067136e+01 +6.78717361541856e+03
-1.00274539000000e+00 +0.00000000000000e+00 +1.78168960750665e-11 +3.37025262958566e-04 +1.12801478324809e-05 +1.82788446327576e-05 +2.74437732780422e-04 +9.72008654250206e-07 +6.43050940903364e-04 +5.97175720296551e+01 +5.32907051820075e-15 +7.19073096024759e+03
-1.00244557900000e+00 +2.25343685600000e-02 +1.79466423747258e-11 +3.38522978194239e-04 +1.08684219713316e-05 +1.79278297915669e-05 +2.73472624794176e-04 +9.79087028617164e-07 +6.36497040189302e-04 +6.12468486398092e+01 +5.61641137144281e+01 +7.21017058910670e+03
-1.00335717200000e+00 +0.00000000000000e+00 +2.11196325003944e-11 +3.71510224621670e-04 +5.24306444976556e-06 +1.19521526623576e-05 +2.54494401528987e-04 +1.15219092285866e-06 +5.13679049644003e-04 +6.68744842725274e+01 +3.55271367880050e-15 +7.63126736384709e+03
-1.00305724100000e+00 +2.25563962000000e-02 +2.12353875637380e-11 +3.72554332815060e-04 +5.06571186272971e-06 +1.17315119410443e-05 +2.53590839326840e-04 +1.15850598500743e-06 +5.08744026397762e-04 +6.86241031475077e+01 +6.36131254394106e+01 +7.64845135064182e+03
-1.00406074500000e+00 +0.00000000000000e+00 +2.46248380463660e-11 +3.99751928471421e-04 +2.27021249435027e-06 +7.43341645836908e-06 +2.33509475482541e-04 +1.34341897242819e-06 +3.99787728143138e-04 +7.64044010777241e+01 -1.77635683940025e-15 +8.10285667655781e+03
-1.00376057600000e+00 +2.25817263100000e-02 +2.47249733328652e-11 +4.00373879652398e-04 +2.19964394623074e-06 +7.30422698538025e-06 +2.32720556756196e-04 +1.34888187613553e-06 +3.96135450627786e-04 +7.83653502483701e+01 +7.13518587635143e+01 +8.11849626201267e+03
-1.00486981900000e+00 +0.00000000000000e+00 +2.83092349965994e-11 +4.20152938898168e-04 +9.12983208573537e-07 +4.38945979672592e-06 +2.12585524221580e-04 +1.54442292484332e-06 +3.01339793874591e-04 +8.84868560332450e+01 +1.77635683940025e-15 +8.62250777229524e+03
-1.00456953000000e+00 +2.26108562200000e-02 +2.83937677374454e-11 +4.20415889760199e-04 +8.87153092719982e-07 +4.31825652799134e-06 +2.11928167375056e-04 +1.54903462438014e-06 +2.98711193500046e-04 +9.06497590965162e+01 +7.93402761900536e+01 +8.63700623122866e+03
-1.00580036600000e+00 +0.00000000000000e+00 +3.21678478401579e-11 +4.31793337550769e-04 +3.40384109914908e-07 +2.44705052309589e-06 +1.92485754849080e-04 +1.75493127628689e-06 +2.18517465013423e-04 +1.03295368380956e+02 +1.77635683940025e-15 +9.20576933758659e+03
-1.00549984000000e+00 +2.26443558900000e-02 +3.22373574597283e-11 +4.31779508317151e-04 +3.31714601175574e-07 +2.41016243335650e-06 +1.91956905530916e-04 +1.75872340684450e-06 +2.16695887425747e-04 +1.05652199305661e+02 +8.75254146811739e+01 +9.21927195689579e+03
-1.00687038900000e+00 +0.00000000000000e+00 +3.62000421239045e-11 +4.34527219318552e-04 +1.17586433687873e-07 +1.27810479009138e-06 +1.73716998373563e-04 +1.97490943219806e-06 +1.51221580122205e-04 +1.21040027295464e+02 +1.77635683940025e-15 +9.86565492419677e+03
-1.00656962400000e+00 +2.26828809800000e-02 +3.62550670974056e-11 +4.34324347089932e-04 +1.14923633888651e-07 +1.26032738970318e-06 +1.73303786873311e-04 +1.97791137957328e-06 +1.50017451559535e-04 +1.23583464427572e+02 +9.58371691087291e+01 +9.87811697301158e+03
-1.00810098600000e+00 +0.00000000000000e+00 +4.03991712351099e-11 +4.28936019714011e-04 +3.76792811157723e-08 +6.20951613227595e-07 +1.56603423754928e-04 +2.20399491581024e-06 +9.88413616585199e-05 +1.41961424099718e+02 +3.55271367880050e-15 +1.06115470332664e+04
-1.00779986400000e+00 +2.27271840000000e-02 +4.04400474053557e-11 +4.28625588112880e-04 +3.69315448487836e-08 +6.13092620731787e-07 +1.56289208244125e-04 +2.20622494855809e-06 +9.80910924597604e-05 +1.44683207582504e+02 +1.04185031949574e+02 +1.06227864879889e+04
-1.00951612000000e+00 +0.00000000000000e+00 +4.47539992977917e-11 +4.16235421911400e-04 +1.12372211312619e-08 +2.79112487759825e-07 +1.41335137104406e-04 +2.44157461315101e-06 +6.02349201178664e-05 +1.66213851197299e+02 -1.77635683940025e-15 +1.14468468550013e+04
-1.00921464000000e+00 +2.27781329300000e-02 +4.47809498254864e-11 +4.15885984697112e-04 +1.10452161629230e-08 +2.75963864406732e-07 +1.41102532774458e-04 +2.44304489076257e-06 +5.98020975963838e-05 +1.69101213743792e+02 +1.12462627727697e+02 +1.14565727437035e+04
-1.01114344600000e+00 +0.00000000000000e+00 +4.92888425780878e-11 +3.98242961488350e-04 +3.13946066468477e-09 +1.15607642852743e-07 +1.28015535471534e-04 +2.68897502213494e-06 +3.37177894061495e-05 +1.93641089487695e+02 -5.32907051820075e-15 +1.23633207548406e+04
-1.01084160800000e+00 +2.28367243000000e-02 +4.93022656318468e-11 +3.97907527054621e-04 +3.09430077040682e-09 +1.14475379908236e-07 +1.27848323765775e-04 +2.68970729548465e-06 +3.34921775830770e-05 +1.96675621415598e+02 +1.20568614359075e+02 +1.23711468562383e+04
-1.01301503200000e+00 +0.00000000000000e+00 +5.41956210880030e-11 +3.77340841652269e-04 +8.30468218049455e-10 +4.39498461384711e-08 +1.16714516630605e-04 +2.95666649760840e-06 +1.70611318891147e-05 +2.23579124886301e+02 +3.55271367880050e-15 +1.33321264832421e+04
-1.01271271700000e+00 +2.29041054800000e-02 +5.42033457360404e-11 +3.77030558458673e-04 +8.20519022584658e-10 +4.35740527277740e-08 +1.16588988380458e-04 +2.95708789192059e-06 +1.69511388257174e-05 +2.26777225614179e+02 +1.28455874858971e+02 +1.33387547563881e+04
-1.01516723600000e+00 +0.00000000000000e+00 +5.97434185884712e-11 +3.56319163735548e-04 +2.12190316438752e-10 +1.52973069336778e-08 +1.07515310766602e-04 +3.25932912058035e-06 +7.69316957116167e-06 +2.54834846266403e+02 +0.00000000000000e+00 +1.42916925155352e+04
-1.01486444500000e+00 +2.29815915200000e-02 +5.97621641819689e-11 +3.56006403839141e-04 +2.09763076896335e-10 +1.51575558275396e-08 +1.07403525094314e-04 +3.26035176357345e-06 +7.63315077266122e-06 +2.58262745627050e+02 +1.36067577545167e+02 +1.42989160278378e+04
-1.01747763200000e+00 +0.00000000000000e+00 +6.54870684811617e-11 +3.37780368120326e-04 +5.57344425954584e-11 +4.94077821088362e-09 +1.00466414083363e-04 +3.57267671609242e-06 +3.08550646945597e-06 +2.86230533439574e+02 -1.06581410364015e-14 +1.51564722095331e+04
-1.01717424400000e+00 +2.30647735300000e-02 +6.55122276506152e-11 +3.37474371726461e-04 +5.49513289116838e-11 +4.87856643401632e-09 +1.00363946708242e-04 +3.57404921312363e-06 +3.05069187890746e-06 +2.89901651061442e+02 +1.43192164638269e+02 +1.51639670745632e+04
-1.01978802700000e+00 +0.00000000000000e+00 +7.01847528852681e-11 +3.23139427901293e-04 +1.76885636177691e-11 +1.55702632183252e-09 +9.53934458394251e-05 +3.82896109954279e-06 +1.12234084666001e-06 +3.17444588481856e+02 +3.55271367880050e-15 +1.58638106506441e+04
-1.01948404300000e+00 +2.31479536700000e-02 +7.01911343966311e-11 +3.22884490448805e-04 +1.74565695664183e-11 +1.53410697325409e-09 +9.53123330692161e-05 +3.82930914305803e-06 +1.10664413286256e-06 +3.21293370693246e+02 +1.49629256536385e+02 +1.58693650205063e+04
-1.02209854100000e+00 +0.00000000000000e+00 +7.32279471487981e-11 +3.12404652518990e-04 +8.13645214183758e-12 +5.19440311193999e-10 +9.18899782975643e-05 +3.99498377936999e-06 +3.80666894708537e-07 +3.48889011570746e+02 +7.10542735760100e-15 +1.64001469582135e+04
-1.02179396200000e+00 +2.32311356800000e-02 +7.32106415816335e-11 +3.12213297013190e-04 +8.07561922552087e-12 +5.12680816245999e-10 +9.18314579979337e-05 +3.99403961741697e-06 +3.75225982863585e-07 +3.52866857644911e+02 +1.55379725319639e+02 +1.64028899548908e+04
-1.02440893700000e+00 +0.00000000000000e+00 +7.50483738950939e-11 +3.04902857186761e-04 +5.55375826460302e-12 +2.07843252224016e-10 +8.95258548318617e-05 +4.09429780084658e-06 +1.23096924951485e-07 +3.80984594344278e+02 +3.55271367880050e-15 +1.67824126968218e+04
-1.02410376100000e+00 +2.33143158300000e-02 +7.50170023537902e-11 +3.04762243512263e-04 +5.53738051872952e-12 +2.05885100559172e-10 +8.94839066704194e-05 +4.09258632442984e-06 +1.21292934977734e-07 +3.85076149149027e+02 +1.60522770621816e+02 +1.67827362605134e+04
-1.02671933200000e+00 +0.00000000000000e+00 +7.61582618018444e-11 +2.99833848640744e-04 +5.06564854807859e-12 +1.14425529506590e-10 +8.79575811082585e-05 +4.15484820997826e-06 +3.83117761163014e-08 +4.13923849041413e+02 -3.55271367880050e-15 +1.70398110741158e+04
-1.02641356000000e+00 +2.33974978300000e-02 +7.61176442681886e-11 +2.99731489352621e-04 +5.06330087631243e-12 +1.13861021353406e-10 +8.79276217665275e-05 +4.15263229645151e-06 +3.76640355128181e-08 +4.18115716738456e+02 +1.65143023793995e+02 +1.70382216239415e+04
-1.02902972700000e+00 +0.00000000000000e+00 +7.68049792875249e-11 +2.96468380401894e-04 +6.14155987354594e-12 +8.63617302651684e-11 +8.69273532677690e-05 +4.19013035078112e-06 +1.23394680935009e-08 +4.47706032032841e+02 -7.10542735760100e-15 +1.72043148289509e+04
-1.02872347800000e+00 +2.34806779800000e-02 +7.67580070325846e-11 +2.96393943844444e-04 +6.15159677837020e-12 +8.62339610165773e-11 +8.69060082178114e-05 +4.18756767115917e-06 +1.21159068988857e-08 +4.51984671869856e+02 +1.69341718551274e+02 +1.72012916287708e+04
-1.03134012200000e+00 +0.00000000000000e+00 +7.71355987020589e-11 +2.94231807064342e-04 +1.12461525684349e-11 +7.91943133331106e-11 +8.62486922271762e-05 +4.20816758028223e-06 +7.83455531524103e-09 +4.82257797399864e+02 +3.55271367880050e-15 +1.73038892409017e+04
-1.03103327800000e+00 +2.35638599800000e-02 +7.70844715367184e-11 +2.94177263385121e-04 +1.12905603883311e-11 +7.92506187009403e-11 +8.62334508192337e-05 +4.20537821751766e-06 +7.83507121245896e-09 +4.86611350492940e+02 +1.73220342313777e+02 +1.72998486524541e+04
-1.03365051700000e+00 +0.00000000000000e+00 +7.72539554027878e-11 +2.92706876377535e-04 +3.01542147886166e-11 +8.10986840548957e-11 +8.57910303949354e-05 +4.21462454430394e-06 +1.37461492190927e-08 +5.17529531830985e+02 +3.55271367880050e-15 +1.73603590742004e+04
-1.03334307700000e+00 +2.36470419900000e-02 +7.72004520916140e-11 +2.92666021063763e-04 +3.03178494957333e-11 +8.12877099893962e-11 +8.57799800277119e-05 +4.21170562923765e-06 +1.39017965975244e-08 +5.21948146455095e+02 +1.76866496701201e+02 +1.73556488962812e+04
-1.03596091300000e+00 +0.00000000000000e+00 +7.72353465264555e-11 +2.91600851474672e-04 +9.72443800004306e-11 +9.19847250550789e-11 +8.54651353277937e-05 +4.21360929217191e-06 +3.05965591743495e-08 +5.53499599245516e+02 +3.55271367880050e-15 +1.73896189430171e+04
-1.03565299500000e+00 +2.37302221400000e-02 +7.71806731674855e-11 +2.91569461565158e-04 +9.78337160269824e-11 +9.23510518607860e-11 +8.54570059540937e-05 +4.21062655687537e-06 +3.09507948650958e-08 +5.57974218270927e+02 +1.80348882911586e+02 +1.73844852843536e+04
-1.03827130800000e+00 +0.00000000000000e+00 +7.71346384256743e-11 +2.90707468020479e-04 +3.30939384339238e-10 +1.19326134367598e-10 +8.52109391807444e-05 +4.20811501804840e-06 +6.85998659655587e-08 +5.90175412459188e+02 +0.00000000000000e+00 +1.74028570607976e+04
-1.03796279400000e+00 +2.38134041400000e-02 +7.70792693357835e-11 +2.90683550785180e-04 +3.33037556132435e-10 +1.20034861489220e-10 +8.52051758250214e-05 +4.20509434287534e-06 +6.93658310570588e-08 +5.94696466295932e+02 +1.83717383811596e+02 +1.73974170894109e+04
-1.04058170300000e+00 +0.00000000000000e+00 +7.69943008157102e-11 +2.89870041767422e-04 +1.13252255156864e-09 +1.81627858771282e-10 +8.49876321031102e-05 +4.20045870899711e-06 +1.52472394189481e-07 +6.27602962253112e+02 +7.10542735760100e-15 +1.74080525263357e+04
-1.04027259300000e+00 +2.38965842900000e-02 +7.69383753557471e-11 +2.89853072958382e-04 +1.13989199865460e-09 +1.83055080281668e-10 +8.49841498145570e-05 +4.19740774326262e-06 +1.54151269645259e-07 +6.32162444114232e+02 +1.87005350007490e+02 +1.74023307607536e+04
-1.04289221800000e+00 +0.00000000000000e+00 +7.68538448739582e-11 +2.88942411900644e-04 +3.84059428995397e-09 +3.19926933778700e-10 +8.47652990710223e-05 +4.19279611825745e-06 +3.35334424239792e-07 +6.65895149426721e+02 +1.42108547152020e-14 +1.74115287897769e+04
-1.04258251200000e+00 +2.39797662900000e-02 +7.67981840032307e-11 +2.88930544544190e-04 +3.86607288066039e-09 +3.22816885007893e-10 +8.47637184346788e-05 +4.18975960756845e-06 +3.38876009732487e-07 +6.70488313079341e+02 +1.90232874818861e+02 +1.74056101775003e+04
-1.04520261300000e+00 +0.00000000000000e+00 +7.67619656610279e-11 +2.87732688175629e-04 +1.28503710612809e-08 +6.22846134607775e-10 +8.45144731783003e-05 +4.18778367049742e-06 +7.28903383260207e-07 +7.05293779575533e+02 +0.00000000000000e+00 +1.74200478774295e+04
-1.04489231100000e+00 +2.40629464400000e-02 +7.67083843790313e-11 +2.87719530357315e-04 +1.29368777704589e-08 +6.28634546719007e-10 +8.45133613169749e-05 +4.18486060591338e-06 +7.35995053311033e-07 +7.09917120028864e+02 +1.93408843963398e+02 +1.74142513080994e+04
-1.04751300800000e+00 +0.00000000000000e+00 +7.67901291444597e-11 +2.85899193498851e-04 +4.23532546093042e-08 +1.27970193182499e-09 +8.41863142458338e-05 +4.18932014458396e-06 +1.56586198254285e-06 +7.46281910568115e+02 -3.55271367880050e-15 +1.74447816467148e+04
-1.04720211000000e+00 +2.41461284500000e-02 +7.67398668271745e-11 +2.85876067599884e-04 +4.26418653434516e-08 +1.29125065627203e-09 +8.41840181742705e-05 +4.18657811363814e-06 +1.57974965347371e-06 +7.50931105226441e+02 +1.96529582420942e+02 +1.74395038423901e+04
-1.04982340300000e+00 +0.00000000000000e+00 +7.70194213255538e-11 +2.82762345199116e-04 +1.37295538156825e-07 +2.69487245053170e-09 +8.36745142516312e-05 +4.20182939891533e-06 +3.33050284511141e-06 +7.89781395195960e+02 +0.00000000000000e+00 +1.75086679757545e+04
-1.04951202900000e+00 +2.42293085900000e-02 +7.69718864951501e-11 +2.82722235673201e-04 +1.38243034603661e-07 +2.71801928509622e-09 +8.36704434918322e-05 +4.19923608034122e-06 +3.35761990564330e-06 +7.94451085512986e+02 +1.99567261706353e+02 +1.75041113901450e+04
-1.05213379900000e+00 +0.00000000000000e+00 +7.73883438380229e-11 +2.76930535396863e-04 +4.36326113988115e-07 +5.74314035047169e-09 +8.27275549570306e-05 +4.22195626636270e-06 +7.04220753096349e-06 +8.38156968535346e+02 -3.55271367880050e-15 +1.76591178911012e+04
-1.05182182800000e+00 +2.43124906000000e-02 +7.73421951043755e-11 +2.76861445948129e-04 +4.39371205233450e-07 +5.78996605038933e-09 +8.27204321904095e-05 +4.21943850502562e-06 +7.09494348489494e-06 +8.42849032915988e+02 +2.02407970522078e+02 +1.76555864248497e+04
-1.05444419400000e+00 +0.00000000000000e+00 +7.72505573294690e-11 +2.65201575189100e-04 +1.34464592689418e-06 +1.23274208004809e-08 +8.06356275541454e-05 +4.21443920081652e-06 +1.48323348151640e-05 +9.03094735816200e+02 -3.55271367880050e-15 +1.79846468417668e+04
-1.05413162700000e+00 +2.43956707400000e-02 +7.72027668360807e-11 +2.65068719314453e-04 +1.35398555514483e-06 +1.24233457107955e-08 +8.06181495060721e-05 +4.21183194051990e-06 +1.49338976873267e-05 +9.07904920960391e+02 +2.04532756898583e+02 +1.79830840720609e+04
-1.05675458900000e+00 +0.00000000000000e+00 +7.37336971924126e-11 +2.39276603601291e-04 +3.84188687312467e-06 +2.59171857143476e-08 +7.51145736892216e-05 +4.02257512692250e-06 +3.03947378808656e-05 +1.05620947124787e+03 +0.00000000000000e+00 +1.85980814123285e+04
-1.05644154500000e+00 +2.44788527500000e-02 +7.36557213811766e-11 +2.38991695443051e-04 +3.86610159914055e-06 +2.61036251438575e-08 +7.50614072611404e-05 +4.01832114755333e-06 +3.05747790462574e-05 +1.06187419196138e+03 +2.03772582425701e+02 +1.85995777035849e+04
-1.05906498400000e+00 +0.00000000000000e+00 +6.06069392858727e-11 +1.85922521456916e-04 +8.99298667307583e-06 +4.74845854181151e-08 +6.15307962291065e-05 +3.30643883734415e-06 +5.45680145672231e-05 +1.59030922809457e+03 +0.00000000000000e+00 +1.94722194132089e+04
-1.05875134500000e+00 +2.45620347600000e-02 +6.04375572667948e-11 +1.85372229293783e-04 +9.03128828287302e-06 +4.77475271502917e-08 +6.13960571083380e-05 +3.29719812117699e-06 +5.47808984885912e-05 +1.59996935374919e+03 +1.93538157921755e+02 +1.94750110683969e+04
-1.06137549900000e+00 +0.00000000000000e+00 +3.70891738342296e-11 +1.09340293819092e-04 +1.51971601042286e-05 +6.50628104854896e-08 +3.90253132293702e-05 +2.02341653573768e-06 +7.48890962204267e-05 +3.06982698664789e+03 +3.55271367880050e-15 +1.96095604991881e+04
-1.06106114400000e+00 +2.46452149000000e-02 +3.68570410834375e-11 +1.08655935667515e-04 +1.52227735899421e-05 +6.52600622872119e-08 +3.88243605805197e-05 +2.01075242476430e-06 +7.49687117734059e-05 +3.08884798905403e+03 +1.63003455973694e+02 +1.95989549247323e+04
-1.06368589400000e+00 +0.00000000000000e+00 +1.48296555856193e-11 +4.29717069767842e-05 +1.74950437125786e-05 +5.79396054152301e-08 +1.68555673847164e-05 +8.09038478832658e-07 +7.31301672139703e-05 +5.67246642549017e+03 -3.55271367880050e-15 +1.66939750204300e+04
-1.06337094300000e+00 +2.47283969100000e-02 +1.46702382716248e-11 +4.25159648180236e-05 +1.74979104008641e-05 +5.79183061113821e-08 +1.66999321875555e-05 +8.00341405267003e-07 +7.30626846630915e-05 +5.69910055361726e+03 +1.09936008783561e+02 +1.66467251693804e+04
-1.06599628900000e+00 +0.00000000000000e+00 +3.51425944614521e-12 +1.02272805054109e-05 +1.42325065043687e-05 +2.96988422139515e-08 +4.44006322961007e-06 +1.91721960286108e-07 +5.25559267560017e-05 +8.47556015255927e+03 -4.44089209850063e-15 +1.03179346099067e+04
-1.06568086100000e+00 +2.48115770500000e-02 +3.46547932421963e-12 +1.00863593036934e-05 +1.42367822389546e-05 +2.95389647956356e-08 +4.38412387314238e-06 +1.89060743278006e-07 +5.25201753897646e-05 +8.49718055491682e+03 +5.33423434262684e+01 +1.02506145321779e+04
-1.06830668400000e+00 +0.00000000000000e+00 +4.86196530682600e-13 +1.43408947376832e-06 +9.95061784447466e-06 +7.74444148040906e-09 +6.70776006552262e-07 +2.65246461594779e-08 +3.41614495605579e-05 +1.02916966728101e+04 +1.11022302462516e-16 +4.10959619789456e+03
-1.06799066100000e+00 +2.48947590600000e-02 +4.80513191580883e-13 +1.41722659504628e-06 +9.95970150878261e-06 +7.65060191630478e-09 +6.63241383706433e-07 +2.62145890363972e-08 +3.41829989213031e-05 +1.03009439878024e+04 +1.67753970930472e+01 +4.06870202736046e+03
-1.07061708000000e+00 +0.00000000000000e+00 +4.82828644247919e-14 +1.42755117199841e-07 +8.02397024043134e-06 +9.75564820877038e-10 +6.72576262592749e-08 +2.63407410157670e-09 +2.69459260088017e-05 +1.09720117916289e+04 -5.55111512312578e-17 +1.03962013963314e+03
-1.07030046000000e+00 +2.49779392000000e-02 +4.77384089718979e-14 +1.41134956556571e-07 +8.02738194459808e-06 +9.63216390097168e-10 +6.65314478831362e-08 +2.60437115440690e-09 +2.69564847662179e-05 +1.09738692837867e+04 +3.07527912174790e+00 +1.02957239188539e+03
-1.07292747500000e+00 +0.00000000000000e+00 +3.62685468435783e-15 +1.07229985910127e-08 +7.65742840322105e-06 +7.38081657492440e-11 +5.05293919218643e-09 +1.97846339002984e-10 +2.56387709066376e-05 +1.11097545521680e+04 +2.16840434497101e-17 +2.93559448395623e+02
-1.07261037800000e+00 +2.50611212100000e-02 +3.58734240579672e-15 +1.06054044158393e-08 +7.65766197903600e-06 +7.29059214827385e-11 +5.00033690302599e-09 +1.95690734096855e-10 +2.56394905763542e-05 +1.11099263734175e+04 +3.05296911659022e-01 +2.92526048764198e+02
-1.07523787000000e+00 +0.00000000000000e+00 +1.39960263374825e-16 +4.13255199178285e-10 +7.62588513676289e-06 +2.84478450658238e-12 +1.94737217315193e-10 +7.62483387350421e-12 +2.55269179574519e-05 +1.11241859068735e+04 -1.62630325872826e-19 +2.09939724884980e+02
-1.07492017700000e+00 +2.51443013500000e-02 +1.38879840490406e-16 +4.10030541108686e-10 +7.62587210024295e-06 +2.81899592398180e-12 +1.93327056645434e-10 +7.56587269439802e-12 +2.55268725879610e-05 +1.11241936218666e+04 +1.63578788227816e-02 +2.09908984078455e+02
-1.07754826500000e+00 +0.00000000000000e+00 +3.07309910350083e-18 +9.16108561978132e-12 +7.62429474407911e-06 +6.30635250871135e-14 +4.31696504499110e-12 +1.69028540449596e-13 +2.55213486751009e-05 +1.11249738654373e+04 -3.38813178901720e-21 +2.06136189105174e+02
-1.07722997700000e+00 +2.52274833600000e-02 +3.05326804990777e-18 +9.09990614710605e-12 +7.62429416178408e-06 +6.25629308785483e-14 +4.29056802258155e-12 +1.67911456099698e-13 +2.55213465648413e-05 +1.11249740433268e+04 +5.19332729553327e-04 +2.06135625125642e+02
-1.07985866100000e+00 +0.00000000000000e+00 +0.00000000000000e+00 +1.65074298264872e-13 +7.62422422465378e-06 +1.13630577949918e-15 +7.77880589957707e-14 +3.04566070392418e-15 +2.55211070892807e-05 +1.11249987773813e+04 +8.27180612553028e-23 +2.06051516286148e+02
-1.07953989500000e+00 +2.53106635100000e-02 +0.00000000000000e+00 +1.64156507695951e-13 +7.62422422489718e-06 +1.12855968204866e-15 +7.73995439700520e-14 +3.02893527682397e-15 +2.55211070901004e-05 +1.11249987773266e+04 +9.17318554914460e-06 +2.06051508021488e+02
-1.08216917500000e+00 +0.00000000000000e+00 +0.00000000000000e+00 +2.67599355934182e-15 +7.62422314400000e-06 +1.79500517844446e-17 +1.26114182339796e-15 +4.88207155207243e-17 +2.55211034500000e-05 +1.11249990200000e+04 +1.65436122510606e-24 +2.06050012599623e+02
-1.08184969400000e+00 +2.53938455100000e-02 +0.00000000000000e+00 +2.66603046368717e-15 +7.62422314400000e-06 +1.78604633024151e-17 +1.25716371049166e-15 +4.86402405349329e-17 +2.55211034500000e-05 +1.11249990200000e+04 +1.24760858506562e-07 +2.06050012605217e+02
-1.08447957000000e+00 +0.00000000000000e+00 +0.00000000000000e+00 +4.01965751856840e-17 +7.62422314400000e-06 +0.00000000000000e+00 +1.89857497112755e-17 +4.24195732977255e-19 +2.55211034500000e-05 +1.11249990200000e+04 +9.28962601988264e-26 +2.06049987800000e+02
-1.08415949300000e+00 +2.54770275200000e-02 +0.00000000000000e+00 +4.00987041591978e-17 +7.62422314400000e-06 +0.00000000000000e+00 +1.89504291228482e-17 +4.22367767092141e-19 +2.55211034500000e-05 +1.11249990200000e+04 +1.57624341266471e-09 +2.06049987800000e+02
-1.08678996600000e+00 +0.00000000000000e+00 +0.00000000000000e+00 +0.00000000000000e+00 +7.62422314400000e-06 +0.00000000000000e+00 +0.00000000000000e+00 +0.00000000000000e+00 +2.55211034500000e-05 +1.11249990200000e+04 -4.03896783473158e-28 +2.06049987800000e+02
-1.08646941200000e+00 +2.55602076600000e-02 +0.00000000000000e+00 +0.00000000000000e+00 +7.62422314400000e-06 +0.00000000000000e+00 +0.00000000000000e+00 +0.00000000000000e+00 +2.55211034500000e-05 +1.11249990200000e+04 +3.55279542887187e-11 +2.06049987800000e+02
-1.08910036100000e+00 +0.00000000000000e+00 +0.00000000000000e+00 +0.00000000000000e+00 +7.62422314400000e-06 +0.00000000000000e+00 +0.00000000000000e+00 +0.00000000000000e+00 +2.55211034500000e-05 +1.11249990200000e+04 +0.00000000000000e+00 +2.06049987800000e+02
-1.08877921100000e+00 +2.56433896700000e-02 +0.00000000000000e+00 +0.00000000000000e+00 +7.62422314400000e-06 +0.00000000000000e+00 +0.00000000000000e+00 +0.00000000000000e+00 +2.55211034500000e-05 +1.11249990200000e+04 +1.85504003757891e-11 +2.06049987800000e+02
-1.09141075600000e+00 +0.00000000000000e+00 +0.00000000000000e+00 +0.00000000000000e+00 +7.62422314400000e-06 +0.00000000000000e+00 +0.00000000000000e+00 +0.00000000000000e+00 +2.55211034500000e-05 +1.11249990200000e+04 +0.00000000000000e+00 +2.06049987800000e+02
-1.09108901000000e+00 +2.57265698200000e-02 +0.00000000000000e+00 +0.00000000000000e+00 +7.62422314400000e-06 +0.00000000000000e+00 +0.00000000000000e+00 +0.00000000000000e+00 +2.55211034500000e-05 +1.11249990200000e+04 +1.87907826982994e-11 +2.06049987800000e+02
-1.09372115100000e+00 +0.00000000000000e+00 +0.00000000000000e+00 +0.00000000000000e+00 +7.62422314400000e-06 +0.00000000000000e+00 +0.00000000000000e+00 +0.00000000000000e+00 +2.55211034500000e-05 +1.11249990200000e+04 +4.03896783473158e-28 +2.06049987800000e+02
-1.09339892900000e+00 +2.58097518200000e-02 +0.00000000000000e+00 +0.00000000000000e+00 +7.62422314400000e-06 +0.00000000000000e+00 +0.00000000000000e+00 +0.00000000000000e+00 +2.55211034500000e-05 +1.11249990200000e+04 +1.86639642737175e-11 +2.06049987800000e+02
-1.09603154700000e+00 +0.00000000000000e+00 +0.00000000000000e+00 +0.00000000000000e+00 +7.62422314400000e-06 +0.00000000000000e+00 +0.00000000000000e+00 +0.00000000000000e+00 +2.55211034500000e-05 +1.11249990200000e+04 +0.00000000000000e+00 +2.06049987800000e+02
-1.09570872800000e+00 +2.58929319700000e-02 +0.00000000000000e+00 +0.00000000000000e+00 +7.62422314400000e-06 +0.00000000000000e+00 +0.00000000000000e+00 +0.00000000000000e+00 +2.55211034500000e-05 +1.11249990200000e+04 +1.86265295129228e-11 +2.06049987800000e+02
-1.09834194200000e+00 +0.00000000000000e+00 +0.00000000000000e+00 +0.00000000000000e+00 +7.62422314400000e-06 +0.00000000000000e+00 +0.00000000000000e+00 +0.00000000000000e+00 +2.55211034500000e-05 +1.11249990200000e+04 +0.00000000000000e+00 +2.06049987800000e+02
-1.09801852700000e+00 +2.59761139800000e-02 +0.00000000000000e+00 +0.00000000000000e+00 +7.62422314400000e-06 +0.00000000000000e+00 +0.00000000000000e+00 +0.00000000000000e+00 +2.55211034500000e-05 +1.11249990200000e+04 +1.85847381489991e-11 +2.06049987800000e+02
-1.10065245600000e+00 +0.00000000000000e+00 +0.00000000000000e+00 +0.00000000000000e+00 +7.62422314400000e-06 +0.00000000000000e+00 +0.00000000000000e+00 +0.00000000000000e+00 +2.55211034500000e-05 +1.11249990200000e+04 +8.07793566946316e-28 +2.06049987800000e+02
-1.10032844500000e+00 +2.60592941200000e-02 +0.00000000000000e+00 +0.00000000000000e+00 +7.62422314400000e-06 +0.00000000000000e+00 +0.00000000000000e+00 +0.00000000000000e+00 +2.55211034500000e-05 +1.11249990200000e+04 +1.85554015293256e-11 +2.06049987800000e+02