 TITLE="parade results"
 VARIABLES="wavelength [A]"
 "emission coefficient [W/m3/str/m]"
 "absorption coefficient [1/m]"
 "conditional distribution [-]"
 ZONE I=        2000 , F=POINT
  8.0000000000E+02  8.9425878042E+12  3.0551556408E+01  0.0000000000E+00
  8.0360180090E+02  9.6347296174E+12  3.0966069376E+01  1.3905546915E-03
  8.0720360180E+02  1.0373123477E+13  3.1384314801E+01  2.8882006192E-03
  8.1080540270E+02  1.1160339875E+13  3.1806309410E+01  4.5000559022E-03
  8.1440720360E+02  1.1999060299E+13  3.2232069933E+01  6.2336319058E-03
  8.1800900450E+02  1.2892080393E+13  3.2661613098E+01  8.0968501018E-03
  8.2161080540E+02  1.3842313146E+13  3.3094955635E+01  1.0098059404E-02
  8.2521260630E+02  1.4852792091E+13  3.3532114272E+01  1.2246053980E-02
  8.2881440720E+02  1.5926674531E+13  3.3973105738E+01  1.4550091549E-02
  8.3241620810E+02  1.7067244773E+13  3.4417946763E+01  1.7019912160E-02
  8.3601800900E+02  1.8277917386E+13  3.4866654075E+01  1.9665757453E-02
  8.3961980990E+02  1.9562240455E+13  3.5319244402E+01  2.2498390416E-02
  8.4322161081E+02  2.0923898857E+13  3.5775734474E+01  2.5529115623E-02
  8.4682341171E+02  2.2366717539E+13  3.6236141019E+01  2.8769799971E-02
  8.5042521261E+02  2.3894664795E+13  3.6700480766E+01  3.2232893896E-02
  8.5402701351E+02  2.5511855549E+13  3.7168770445E+01  3.5931453095E-02
  8.5762881441E+02  2.7222554638E+13  3.7641026782E+01  3.9879160726E-02
  8.6123061531E+02  2.9031180085E+13  3.8117266508E+01  4.4090350110E-02
  8.6483241621E+02  3.0942306371E+13  3.8597506351E+01  4.8581366270E-02
  8.6843421711E+02  5.9229231726E+12  7.0228637976E+00  5.1024924510E-02
  8.7203601801E+02  6.3057658286E+12  7.1106079457E+00  5.1940386991E-02
  8.7563781891E+02  6.7096681451E+12  7.1990799198E+00  5.2914751843E-02
  8.7923961981E+02  7.1355704395E+12  7.2882827260E+00  5.3951243130E-02
  8.8284142071E+02  7.5844440491E+12  7.3782193702E+00  5.5053228058E-02
  8.8644322161E+02  8.0572919028E+12  7.4688928586E+00  5.6224221667E-02
  8.9004502251E+02  8.5551490877E+12  7.5603061972E+00  5.7467891604E-02
  8.9364682341E+02  9.0790834111E+12  7.6524623920E+00  5.8788062980E-02
  8.9724862431E+02  9.6301959577E+12  7.7453644489E+00  6.0188723313E-02
  9.0085042521E+02  1.0209621640E+13  7.8390153742E+00  6.1674027554E-02
  9.0445222611E+02  1.0818529744E+13  7.9334181736E+00  6.3248303192E-02
  9.0805402701E+02  1.1458124468E+13  8.0285758533E+00  6.4916055445E-02
  9.1165582791E+02  1.2129645451E+13  8.1244914191E+00  6.6681972526E-02
  9.1525762881E+02  1.2834368302E+13  8.2211678771E+00  6.8550930994E-02
  9.1885942971E+02  1.3573605110E+13  8.3186082333E+00  7.0528001176E-02
  9.2246123062E+02  1.4348704958E+13  8.4168154935E+00  7.2618452669E-02
  9.2606303152E+02  1.5161054417E+13  8.5157926637E+00  7.4827759920E-02
  9.2966483242E+02  1.6012078039E+13  8.6155427498E+00  7.7161607876E-02
  9.3326663332E+02  1.6903238836E+13  8.7160687578E+00  7.9625897710E-02
  9.3686843422E+02  1.7836038752E+13  8.8173736934E+00  8.2226752614E-02
  9.4047023512E+02  1.8812019122E+13  8.9194605627E+00  8.4970523664E-02
  9.4407203602E+02  1.9832761125E+13  9.0223323715E+00  8.7863795757E-02
  9.4767383692E+02  2.0899886218E+13  9.1259921255E+00  9.0913393608E-02
  9.5127563782E+02  2.2015056569E+13  9.2304428307E+00  9.4126387816E-02
  9.5487743872E+02  2.3179975466E+13  9.3356874929E+00  9.7510100991E-02
  9.5847923962E+02  2.4396387731E+13  9.4417291178E+00  1.0107211394E-01
  9.6208104052E+02  2.5666080099E+13  9.5485707113E+00  1.0482027194E-01
  9.6568284142E+02  2.6990881609E+13  9.6562152790E+00  1.0876269099E-01
  9.6928464232E+02  2.8372663961E+13  9.7646658268E+00  1.1290776424E-01
  9.7288644322E+02  2.9813341875E+13  9.8739253604E+00  1.1726416836E-01
  9.7648824412E+02  3.1314873424E+13  9.9839968853E+00  1.2184087002E-01
  9.8009004502E+02  3.2879260367E+13  1.0094883407E+01  1.2664713243E-01
  9.8369184592E+02  3.4508548453E+13  1.0206587932E+01  1.3169252187E-01
  9.8729364682E+02  3.6204827724E+13  1.0319113466E+01  1.3698691433E-01
  9.9089544772E+02  3.7970232795E+13  1.0432463013E+01  1.4254050213E-01
  9.9449724862E+02  3.9806943119E+13  1.0546639580E+01  1.4836380068E-01
  9.9809904952E+02  4.1717183247E+13  1.0661646172E+01  1.5446765514E-01
  1.0017008504E+03  4.3703223060E+13  1.0777485794E+01  1.6086324723E-01
  1.0053026513E+03  4.5767377993E+13  1.0894161453E+01  1.6756210204E-01
  1.0089044522E+03  4.7912009242E+13  1.1011676153E+01  1.7457609486E-01
  1.0125062531E+03  5.0139523956E+13  1.1130032900E+01  1.8191745804E-01
  1.0161080540E+03  5.2452375412E+13  1.1249234700E+01  1.8959878790E-01
  1.0197098549E+03  5.4853063173E+13  1.1369284558E+01  1.9763305164E-01
  1.0233116558E+03  5.7344133233E+13  1.1490185478E+01  2.0603359427E-01
  1.0269134567E+03  5.9928178145E+13  1.1611940467E+01  2.1481414563E-01
  1.0305152576E+03  6.2607837129E+13  1.1734552529E+01  2.2398882730E-01
  1.0341170585E+03  6.5385796167E+13  1.1858024671E+01  2.3357342059E-01
  1.0377188594E+03  3.9925921582E+13  7.0081043980E+00  2.4148859158E-01
  1.0413206603E+03  1.2136363377E+13  2.0624102106E+00  2.4503379315E-01
  1.0449224612E+03  1.2662621334E+13  2.0838851298E+00  2.4689059163E-01
  1.0485242621E+03  1.3207533796E+13  2.1055086029E+00  2.4882759673E-01
  1.0521260630E+03  1.3771598267E+13  2.1272811419E+00  2.5084763944E-01
  1.0557278639E+03  1.4355320251E+13  2.1492032587E+00  2.5295362586E-01
  1.0593296648E+03  1.4959213253E+13  2.1712754650E+00  2.5514853836E-01
  1.0629314657E+03  1.5583798769E+13  2.1934982728E+00  2.5743543685E-01
  1.0665332666E+03  1.6229606278E+13  2.2158721938E+00  2.5981745994E-01
  1.0701350675E+03  1.6897173231E+13  2.2383977399E+00  2.6229782610E-01
  1.0737368684E+03  1.7587045032E+13  2.2610754230E+00  2.6487983494E-01
  1.0773386693E+03  1.8299775024E+13  2.2839057548E+00  2.6756686831E-01
  1.0809404702E+03  1.9035924467E+13  2.3068892471E+00  2.7036239153E-01
  1.0845422711E+03  1.9796062512E+13  2.3300264118E+00  2.7326995459E-01
  1.0881440720E+03  2.0580766178E+13  2.3533177605E+00  2.7629319328E-01
  1.0917458729E+03  2.1390620320E+13  2.3767638052E+00  2.7943583043E-01
  1.0953476738E+03  2.2226217601E+13  2.4003650575E+00  2.8270167701E-01
  1.0989494747E+03  2.3088158452E+13  2.4241220292E+00  2.8609463336E-01
  1.1025512756E+03  2.3977051038E+13  2.4480352320E+00  2.8961869031E-01
  1.1061530765E+03  2.4893511217E+13  2.4721051777E+00  2.9327793036E-01
  1.1097548774E+03  2.5838162497E+13  2.4963323779E+00  2.9707652882E-01
  1.1133566783E+03  2.6811635991E+13  2.5207173444E+00  3.0101875493E-01
  1.1169584792E+03  2.7814570367E+13  2.5452605889E+00  3.0510897304E-01
  1.1205602801E+03  2.8847611800E+13  2.5699626229E+00  3.0935164369E-01
  1.1241620810E+03  2.9911413916E+13  2.5948239583E+00  3.1375132479E-01
  1.1277638819E+03  3.1006637738E+13  2.6198451065E+00  3.1831267267E-01
  1.1313656828E+03  3.2133951627E+13  2.6450265793E+00  3.2304044320E-01
  1.1349674837E+03  3.3294031220E+13  2.6703688883E+00  3.2793949291E-01
  1.1385692846E+03  3.4487559366E+13  2.6958725451E+00  3.3301478008E-01
  1.1421710855E+03  3.5715226064E+13  2.7215380611E+00  3.3827136574E-01
  1.1457728864E+03  3.6977728390E+13  2.7473659481E+00  3.4371441484E-01
  1.1493746873E+03  3.8275770429E+13  2.7733567176E+00  3.4934964966E-01
  1.1529764882E+03  1.2274964916E+10  8.6755473400E-04  3.5173923198E-01
  1.1565782891E+03  1.2699912115E+10  8.7571057489E-04  3.5174110204E-01
  1.1601800900E+03  1.3136540276E+10  8.8391736781E-04  3.5174303661E-01
  1.1637818909E+03  1.3585076047E+10  8.9217527125E-04  3.5174503747E-01
  1.1673836918E+03  1.4045748125E+10  9.0048444373E-04  3.5174710640E-01
  1.1709854927E+03  1.4518787235E+10  9.0884504372E-04  3.5174924525E-01
  1.1745872936E+03  1.5004426099E+10  9.1725722973E-04  3.5175145589E-01
  1.1781890945E+03  1.5502899413E+10  9.2572116022E-04  3.5175374022E-01
  1.1817908954E+03  1.6014443816E+10  9.3423699368E-04  3.5175610017E-01
  1.1853926963E+03  1.6539297860E+10  9.4280488856E-04  3.5175853774E-01
  1.1889944972E+03  1.7077701987E+10  9.5142500333E-04  3.5176105492E-01
  1.1925962981E+03  1.7629898491E+10  9.6009749645E-04  3.5176365377E-01
  1.1961980990E+03  1.8196131496E+10  9.6882252636E-04  3.5176633636E-01
  1.1997998999E+03  1.8776646917E+10  9.7760025149E-04  3.5176910483E-01
  1.2034017009E+03  1.9371692436E+10  9.8643083029E-04  3.5177196132E-01
  1.2070035018E+03  1.9981517466E+10  9.9531442117E-04  3.5177490803E-01
  1.2106053027E+03  2.0606373118E+10  1.0042511825E-03  3.5177794720E-01
  1.2142071036E+03  2.1246512170E+10  1.0132412728E-03  3.5178108109E-01
  1.2178089045E+03  2.1902189035E+10  1.0222848504E-03  3.5178431201E-01
  1.2214107054E+03  2.2573659722E+10  1.0313820737E-03  3.5178764231E-01
  1.2250125063E+03  2.3261181807E+10  1.0405331011E-03  3.5179107438E-01
  1.2286143072E+03  2.3965014395E+10  1.0497380910E-03  3.5179461063E-01
  1.2322161081E+03  2.4685418086E+10  1.0589972016E-03  3.5179825352E-01
  1.2358179090E+03  2.5422654941E+10  1.0683105915E-03  3.5180200557E-01
  1.2394197099E+03  2.6176988441E+10  1.0776784189E-03  3.5180586931E-01
  1.2430215108E+03  2.6948683456E+10  1.0871008421E-03  3.5180984732E-01
  1.2466233117E+03  2.7738006208E+10  1.0965780196E-03  3.5181394222E-01
  1.2502251126E+03  2.8545224228E+10  1.1061101095E-03  3.5181815667E-01
  1.2538269135E+03  2.9370606326E+10  1.1156972703E-03  3.5182249337E-01
  1.2574287144E+03  3.0214422550E+10  1.1253396602E-03  3.5182695506E-01
  1.2610305153E+03  3.1076944147E+10  1.1350374375E-03  3.5183154453E-01
  1.2646323162E+03  3.1958443525E+10  1.1447907605E-03  3.5183626459E-01
  1.2682341171E+03  3.2859194218E+10  1.1545997875E-03  3.5184111811E-01
  1.2718359180E+03  3.3779470842E+10  1.1644646767E-03  3.5184610799E-01
  1.2754377189E+03  3.4719549059E+10  1.1743855863E-03  3.5185123718E-01
  1.2790395198E+03  3.5679705539E+10  1.1843626747E-03  3.5185650865E-01
  1.2826413207E+03  3.6660217916E+10  1.1943960999E-03  3.5186192545E-01
  1.2862431216E+03  3.7661364752E+10  1.2044860203E-03  3.5186749064E-01
  1.2898449225E+03  3.8683425497E+10  1.2146325939E-03  3.5187320733E-01
  1.2934467234E+03  3.9726680446E+10  1.2248359791E-03  3.5187907868E-01
  1.2970485243E+03  4.0791410703E+10  1.2350963340E-03  3.5188510787E-01
  1.3006503252E+03  4.1877898138E+10  1.2454138167E-03  3.5189129815E-01
  1.3042521261E+03  4.2986425345E+10  1.2557885854E-03  3.5189765280E-01
  1.3078539270E+03  4.4117275607E+10  1.2662207982E-03  3.5190417513E-01
  1.3114557279E+03  4.5270732848E+10  1.2767106132E-03  3.5191086852E-01
  1.3150575288E+03  4.6447081601E+10  1.2872581886E-03  3.5191773637E-01
  1.3186593297E+03  4.7646606957E+10  1.2978636824E-03  3.5192478213E-01
  1.3222611306E+03  4.8869594533E+10  1.3085272527E-03  3.5193200929E-01
  1.3258629315E+03  5.0116330425E+10  1.3192490576E-03  3.5193942139E-01
  1.3294647324E+03  5.1387101173E+10  1.3300292551E-03  3.5194702200E-01
  1.3330665333E+03  5.2682193713E+10  1.3408680033E-03  3.5195481476E-01
  1.3366683342E+03  5.4001895342E+10  1.3517654602E-03  3.5196280331E-01
  1.3402701351E+03  5.5346493673E+10  1.3627217837E-03  3.5197099137E-01
  1.3438719360E+03  5.6716276597E+10  1.3737371319E-03  3.5197938269E-01
  1.3474737369E+03  5.8111532240E+10  1.3848116627E-03  3.5198798106E-01
  1.3510755378E+03  5.9532548923E+10  1.3959455341E-03  3.5199679032E-01
  1.3546773387E+03  6.0979615122E+10  1.4071389041E-03  3.5200581434E-01
  1.3582791396E+03  6.2453019425E+10  1.4183919305E-03  3.5201505706E-01
  1.3618809405E+03  6.3953050494E+10  1.4297047712E-03  3.5202452244E-01
  1.3654827414E+03  6.5479997023E+10  1.4410775842E-03  3.5203421448E-01
  1.3690845423E+03  6.7034147697E+10  1.4525105273E-03  3.5204413724E-01
  1.3726863432E+03  6.8615791154E+10  1.4640037584E-03  3.5205429482E-01
  1.3762881441E+03  7.0225215940E+10  1.4755574352E-03  3.5206469135E-01
  1.3798899450E+03  7.1862710475E+10  1.4871717157E-03  3.5207533101E-01
  1.3834917459E+03  7.3528563010E+10  1.4988467575E-03  3.5208621804E-01
  1.3870935468E+03  7.5223061585E+10  1.5105827185E-03  3.5209735670E-01
  1.3906953477E+03  7.6946493994E+10  1.5223797565E-03  3.5210875131E-01
  1.3942971486E+03  7.8699147743E+10  1.5342380291E-03  3.5212040621E-01
  1.3978989495E+03  8.0481310011E+10  1.5461576942E-03  3.5213232580E-01
  1.4015007504E+03  8.2293267609E+10  1.5581389093E-03  3.5214451453E-01
  1.4051025513E+03  8.4135306945E+10  1.5701818322E-03  3.5215697689E-01
  1.4087043522E+03  8.6007713985E+10  1.5822866204E-03  3.5216971739E-01
  1.4123061531E+03  8.7910774209E+10  1.5944534318E-03  3.5218274060E-01
  1.4159079540E+03  8.9844772580E+10  1.6066824238E-03  3.5219605114E-01
  1.4195097549E+03  9.1809993502E+10  1.6189737541E-03  3.5220965367E-01
  1.4231115558E+03  9.3806720784E+10  1.6313275801E-03  3.5222355287E-01
  1.4267133567E+03  9.5835237600E+10  1.6437440596E-03  3.5223775350E-01
  1.4303151576E+03  9.7895826455E+10  1.6562233499E-03  3.5225226033E-01
  1.4339169585E+03  9.9988769146E+10  1.6687656087E-03  3.5226707819E-01
  1.4375187594E+03  1.0211434673E+11  1.6813709933E-03  3.5228221194E-01
  1.4411205603E+03  1.0427283947E+11  1.6940396613E-03  3.5229766649E-01
  1.4447223612E+03  1.0646452684E+11  1.7067717700E-03  3.5231344679E-01
  1.4483241621E+03  1.0868968743E+11  1.7195674768E-03  3.5232955784E-01
  1.4519259630E+03  1.1094859896E+11  1.7324269392E-03  3.5234600467E-01
  1.4555277639E+03  1.1324153822E+11  1.7453503145E-03  3.5236279235E-01
  1.4591295648E+03  1.1556878106E+11  1.7583377600E-03  3.5237992601E-01
  1.4627313657E+03  1.1793060232E+11  1.7713894331E-03  3.5239741079E-01
  1.4663331666E+03  1.2032727582E+11  1.7845054910E-03  3.5241525190E-01
  1.4699349675E+03  1.2275907432E+11  1.7976860909E-03  3.5243345458E-01
  1.4735367684E+03  1.2522626948E+11  1.8109313901E-03  3.5245202411E-01
  1.4771385693E+03  1.2772913184E+11  1.8242415459E-03  3.5247096581E-01
  1.4807403702E+03  1.3026793078E+11  1.8376167152E-03  3.5249028505E-01
  1.4843421711E+03  1.3284293450E+11  1.8510570554E-03  3.5250998722E-01
  1.4879439720E+03  1.3545440995E+11  1.8645627235E-03  3.5253007777E-01
  1.4915457729E+03  1.3810262285E+11  1.8781338766E-03  3.5255056218E-01
  1.4951475738E+03  1.4078783761E+11  1.8917706718E-03  3.5257144597E-01
  1.4987493747E+03  1.4351031735E+11  1.9054732660E-03  3.5259273470E-01
  1.5023511756E+03  1.4627032381E+11  1.9192418164E-03  3.5261443397E-01
  1.5059529765E+03  1.4906811739E+11  1.9330764798E-03  3.5263654943E-01
  1.5095547774E+03  1.5190395704E+11  1.9469774133E-03  3.5265908676E-01
  1.5131565783E+03  1.5477810030E+11  1.9609447736E-03  3.5268205166E-01
  1.5167583792E+03  1.5769080324E+11  1.9749787177E-03  3.5270544989E-01
  1.5203601801E+03  1.6064232042E+11  1.9890794025E-03  3.5272928726E-01
  1.5239619810E+03  1.6363290490E+11  2.0032469848E-03  3.5275356959E-01
  1.5275637819E+03  1.6666280816E+11  2.0174816213E-03  3.5277830275E-01
  1.5311655828E+03  1.6973228014E+11  2.0317834688E-03  3.5280349265E-01
  1.5347673837E+03  1.7284156913E+11  2.0461526840E-03  3.5282914523E-01
  1.5383691846E+03  1.7599092182E+11  2.0605894236E-03  3.5285526647E-01
  1.5419709855E+03  1.7918058323E+11  2.0750938442E-03  3.5288186240E-01
  1.5455727864E+03  1.8241079669E+11  2.0896661025E-03  3.5290893907E-01
  1.5491745873E+03  1.8568180384E+11  2.1043063551E-03  3.5293650257E-01
  1.5527763882E+03  1.8899384456E+11  2.1190147585E-03  3.5296455902E-01
  1.5563781891E+03  1.9234715699E+11  2.1337914693E-03  3.5299311460E-01
  1.5599799900E+03  1.9574197749E+11  2.1486366438E-03  3.5302217550E-01
  1.5635817909E+03  1.9917854058E+11  2.1635504386E-03  3.5305174795E-01
  1.5671835918E+03  2.0265707900E+11  2.1785330100E-03  3.5308183822E-01
  1.5707853927E+03  2.0617782360E+11  2.1935845145E-03  3.5311245263E-01
  1.5743871936E+03  2.0974100336E+11  2.2087051083E-03  3.5314359749E-01
  1.5779889945E+03  2.1334684538E+11  2.2238949478E-03  3.5317527920E-01
  1.5815907954E+03  2.1699557483E+11  2.2391541893E-03  3.5320750415E-01
  1.5851925963E+03  2.2068741493E+11  2.2544829889E-03  3.5324027878E-01
  1.5887943972E+03  2.2442258695E+11  2.2698815028E-03  3.5327360957E-01
  1.5923961981E+03  2.2820131019E+11  2.2853498872E-03  3.5330750302E-01
  1.5959979990E+03  2.3202380193E+11  2.3008882982E-03  3.5334196567E-01
  1.5995997999E+03  2.3589027745E+11  2.3164968918E-03  3.5337700410E-01
  1.6032016008E+03  2.3980094996E+11  2.3321758242E-03  3.5341262490E-01
  1.6068034017E+03  2.4375603064E+11  2.3479252512E-03  3.5344883472E-01
  1.6104052026E+03  2.4775572859E+11  2.3637453288E-03  3.5348564021E-01
  1.6140070035E+03  2.5180025080E+11  2.3796362130E-03  3.5352304808E-01
  1.6176088044E+03  2.5588980217E+11  2.3955980595E-03  3.5356106505E-01
  1.6212106053E+03  2.6002458546E+11  2.4116310243E-03  3.5359969788E-01
  1.6248124062E+03  2.6420480129E+11  2.4277352630E-03  3.5363895337E-01
  1.6284142071E+03  2.6843064811E+11  2.4439109315E-03  3.5367883833E-01
  1.6320160080E+03  2.7270232221E+11  2.4601581854E-03  3.5371935961E-01
  1.6356178089E+03  2.7702001768E+11  2.4764771803E-03  3.5376052409E-01
  1.6392196098E+03  2.8138392640E+11  2.4928680720E-03  3.5380233868E-01
  1.6428214107E+03  2.8579423804E+11  2.5093310159E-03  3.5384481030E-01
  1.6464232116E+03  2.9025114002E+11  2.5258661676E-03  3.5388794593E-01
  1.6500250125E+03  2.9475481753E+11  2.5424736825E-03  3.5393175256E-01
  1.6536268134E+03  2.9930545349E+11  2.5591537161E-03  3.5397623720E-01
  1.6572286143E+03  3.0390322855E+11  2.5759064237E-03  3.5402140690E-01
  1.6608304152E+03  3.0854832106E+11  2.5927319607E-03  3.5406726874E-01
  1.6644322161E+03  3.1324090709E+11  2.6096304824E-03  3.5411382981E-01
  1.6680340170E+03  3.1798116039E+11  2.6266021440E-03  3.5416109724E-01
  1.6716358179E+03  3.2276925239E+11  2.6436471007E-03  3.5420907818E-01
  1.6752376188E+03  3.2760535220E+11  2.6607655077E-03  3.5425777982E-01
  1.6788394197E+03  3.3248962657E+11  2.6779575201E-03  3.5430720934E-01
  1.6824412206E+03  3.3742223991E+11  2.6952232928E-03  3.5435737399E-01
  1.6860430215E+03  3.4240335426E+11  2.7125629810E-03  3.5440828101E-01
  1.6896448224E+03  3.4743312931E+11  2.7299767395E-03  3.5445993767E-01
  1.6932466233E+03  3.5251172234E+11  2.7474647233E-03  3.5451235128E-01
  1.6968484242E+03  3.5763928826E+11  2.7650270872E-03  3.5456552916E-01
  1.7004502251E+03  3.6281597959E+11  2.7826639861E-03  3.5461947866E-01
  1.7040520260E+03  3.6804194644E+11  2.8003755746E-03  3.5467420714E-01
  1.7076538269E+03  3.7331733650E+11  2.8181620075E-03  3.5472972199E-01
  1.7112556278E+03  3.7864229505E+11  2.8360234394E-03  3.5478603064E-01
  1.7148574287E+03  3.8401696496E+11  2.8539600248E-03  3.5484314050E-01
  1.7184592296E+03  3.8944148664E+11  2.8719719185E-03  3.5490105905E-01
  1.7220610305E+03  3.9491599810E+11  2.8900592748E-03  3.5495979375E-01
  1.7256628314E+03  4.0044063487E+11  2.9082222481E-03  3.5501935209E-01
  1.7292646323E+03  4.0601553006E+11  2.9264609929E-03  3.5507974161E-01
  1.7328664332E+03  4.1164081433E+11  2.9447756635E-03  3.5514096984E-01
  1.7364682341E+03  4.1731661587E+11  2.9631664142E-03  3.5520304432E-01
  1.7400700350E+03  4.2304306041E+11  2.9816333991E-03  3.5526597264E-01
  1.7436718359E+03  4.2882027124E+11  3.0001767724E-03  3.5532976240E-01
  1.7472736368E+03  4.3464836915E+11  3.0187966883E-03  3.5539442119E-01
  1.7508754377E+03  4.4052747249E+11  3.0374933007E-03  3.5545995666E-01
  1.7544772386E+03  4.4645769713E+11  3.0562667637E-03  3.5552637645E-01
  1.7580790395E+03  4.5243915645E+11  3.0751172312E-03  3.5559368823E-01
  1.7616808404E+03  4.5847196137E+11  3.0940448571E-03  3.5566189967E-01
  1.7652826413E+03  4.6455622032E+11  3.1130497952E-03  3.5573101848E-01
  1.7688844422E+03  4.7069203927E+11  3.1321321993E-03  3.5580105237E-01
  1.7724862431E+03  4.7687952168E+11  3.1512922230E-03  3.5587200906E-01
  1.7760880440E+03  4.8311876857E+11  3.1705300200E-03  3.5594389631E-01
  1.7796898449E+03  4.8940987844E+11  3.1898457438E-03  3.5601672188E-01
  1.7832916458E+03  4.9575294732E+11  3.2092395481E-03  3.5609049353E-01
  1.7868934467E+03  5.0214806877E+11  3.2287115863E-03  3.5616521906E-01
  1.7904952476E+03  5.0859533386E+11  3.2482620117E-03  3.5624090627E-01
  1.7940970485E+03  5.1509483117E+11  3.2678909777E-03  3.5631756297E-01
  1.7976988494E+03  5.2164664683E+11  3.2875986375E-03  3.5639519701E-01
  1.8013006503E+03  5.2825086446E+11  3.3073851445E-03  3.5647381620E-01
  1.8049024512E+03  5.3490756523E+11  3.3272506517E-03  3.5655342842E-01
  1.8085042521E+03  5.4161682781E+11  3.3471953122E-03  3.5663404153E-01
  1.8121060530E+03  5.4837872844E+11  3.3672192791E-03  3.5671566340E-01
  1.8157078539E+03  5.5519334084E+11  3.3873227053E-03  3.5679830193E-01
  1.8193096548E+03  5.6206073629E+11  3.4075057437E-03  3.5688196501E-01
  1.8229114557E+03  5.6898098362E+11  3.4277685471E-03  3.5696666055E-01
  1.8265132566E+03  5.7595414919E+11  3.4481112683E-03  3.5705239648E-01
  1.8301150575E+03  5.8298029688E+11  3.4685340601E-03  3.5713918072E-01
  1.8337168584E+03  5.9005948815E+11  3.4890370749E-03  3.5722702122E-01
  1.8373186593E+03  5.9719178199E+11  3.5096204655E-03  3.5731592592E-01
  1.8409204602E+03  6.0437723498E+11  3.5302843843E-03  3.5740590278E-01
  1.8445222611E+03  6.1161590121E+11  3.5510289837E-03  3.5749695977E-01
  1.8481240620E+03  6.1890783238E+11  3.5718544162E-03  3.5758910485E-01
  1.8517258629E+03  6.2625307774E+11  3.5927608339E-03  3.5768234602E-01
  1.8553276638E+03  6.3365168412E+11  3.6137483892E-03  3.5777669125E-01
  1.8589294647E+03  6.4110369593E+11  3.6348172342E-03  3.5787214855E-01
  1.8625312656E+03  6.4860915518E+11  3.6559675210E-03  3.5796872592E-01
  1.8661330665E+03  6.5616810145E+11  3.6771994015E-03  3.5806643135E-01
  1.8697348674E+03  6.6378057195E+11  3.6985130279E-03  3.5816527287E-01
  1.8733366683E+03  6.7144660147E+11  3.7199085519E-03  3.5826525850E-01
  1.8769384692E+03  6.7916622243E+11  3.7413861253E-03  3.5836639626E-01
  1.8805402701E+03  6.8693946486E+11  3.7629458999E-03  3.5846869417E-01
  1.8841420710E+03  6.9476635643E+11  3.7845880274E-03  3.5857216028E-01
  1.8877438719E+03  7.0264692243E+11  3.8063126594E-03  3.5867680261E-01
  1.8913456728E+03  7.1058118580E+11  3.8281199473E-03  3.5878262921E-01
  1.8949474737E+03  7.1856916713E+11  3.8500100427E-03  3.5888964812E-01
  1.8985492746E+03  7.2661088467E+11  3.8719830968E-03  3.5899786738E-01
  1.9021510755E+03  7.3470635433E+11  3.8940392611E-03  3.5910729506E-01
  1.9057528764E+03  7.4285558970E+11  3.9161786867E-03  3.5921793919E-01
  1.9093546773E+03  7.5105860204E+11  3.9384015248E-03  3.5932980783E-01
  1.9129564782E+03  7.5931540033E+11  3.9607079265E-03  3.5944290904E-01
  1.9165582791E+03  7.6762599122E+11  3.9830980428E-03  3.5955725087E-01
  1.9201600800E+03  7.7599037908E+11  4.0055720245E-03  3.5967284138E-01
  1.9237618809E+03  7.8440856601E+11  4.0281300226E-03  3.5978968862E-01
  1.9273636818E+03  7.9288055183E+11  4.0507721878E-03  3.5990780066E-01
  1.9309654827E+03  8.0140633408E+11  4.0734986709E-03  3.6002718555E-01
  1.9345672836E+03  8.0998590808E+11  4.0963096224E-03  3.6014785134E-01
  1.9381690845E+03  8.1861926689E+11  4.1192051929E-03  3.6026980609E-01
  1.9417708854E+03  8.2730640133E+11  4.1421855329E-03  3.6039305787E-01
  1.9453726863E+03  8.3604730000E+11  4.1652507927E-03  3.6051761471E-01
  1.9489744872E+03  8.4484194931E+11  4.1884011227E-03  3.6064348467E-01
  1.9525762881E+03  8.5369033344E+11  4.2116366730E-03  3.6077067581E-01
  1.9561780890E+03  8.6259243439E+11  4.2349575939E-03  3.6089919616E-01
  1.9597798899E+03  8.7154823199E+11  4.2583640353E-03  3.6102905377E-01
  1.9633816908E+03  8.8055770387E+11  4.2818561474E-03  3.6116025668E-01
  1.9669834917E+03  8.8962082554E+11  4.3054340800E-03  3.6129281292E-01
  1.9705852926E+03  8.9873757033E+11  4.3290979828E-03  3.6142673054E-01
  1.9741870935E+03  9.0790790945E+11  4.3528480058E-03  3.6156201755E-01
  1.9777888944E+03  9.1713181199E+11  4.3766842984E-03  3.6169868199E-01
  1.9813906953E+03  9.2640924491E+11  4.4006070104E-03  3.6183673187E-01
  1.9849924962E+03  9.3574017308E+11  4.4246162912E-03  3.6197617521E-01
  1.9885942971E+03  9.4512455928E+11  4.4487122902E-03  3.6211702001E-01
  1.9921960980E+03  9.5456236420E+11  4.4728951567E-03  3.6225927429E-01
  1.9957978989E+03  9.6405354649E+11  4.4971650401E-03  3.6240294603E-01
  1.9993996998E+03  9.7359806271E+11  4.5215220894E-03  3.6254804322E-01
  2.0030015008E+03  9.8319586740E+11  4.5459664537E-03  3.6269457386E-01
  2.0066033017E+03  9.9284691308E+11  4.5704982821E-03  3.6284254592E-01
  2.0102051026E+03  1.0025511502E+12  4.5951177234E-03  3.6299196737E-01
  2.0138069035E+03  1.0123085273E+12  4.6198249265E-03  3.6314284617E-01
  2.0174087044E+03  1.0221189909E+12  4.6446200401E-03  3.6329519027E-01
  2.0210105053E+03  1.0319824854E+12  4.6695032128E-03  3.6344900763E-01
  2.0246123062E+03  1.0418989534E+12  4.6944745932E-03  3.6360430618E-01
  2.0282141071E+03  1.0518683355E+12  4.7195343298E-03  3.6376109385E-01
  2.0318159080E+03  1.0618905704E+12  4.7446825710E-03  3.6391937856E-01
  2.0354177089E+03  1.0719655947E+12  4.7699194650E-03  3.6407916822E-01
  2.0390195098E+03  1.0820933433E+12  4.7952451601E-03  3.6424047073E-01
  2.0426213107E+03  1.0922737491E+12  4.8206598044E-03  3.6440329399E-01
  2.0462231116E+03  1.1025067431E+12  4.8461635459E-03  3.6456764587E-01
  2.0498249125E+03  1.1127922544E+12  4.8717565327E-03  3.6473353425E-01
  2.0534267134E+03  1.1231302103E+12  4.8974389124E-03  3.6490096698E-01
  2.0570285143E+03  1.1335205362E+12  4.9232108329E-03  3.6506995192E-01
  2.0606303152E+03  1.1439631558E+12  4.9490724419E-03  3.6524049690E-01
  2.0642321161E+03  1.1544579908E+12  4.9750238869E-03  3.6541260975E-01
  2.0678339170E+03  1.1650049612E+12  5.0010653155E-03  3.6558629827E-01
  2.0714357179E+03  1.1756039851E+12  5.0271968750E-03  3.6576157029E-01
  2.0750375188E+03  1.1862549789E+12  5.0534187127E-03  3.6593843357E-01
  2.0786393197E+03  1.1969578572E+12  5.0797309759E-03  3.6611689591E-01
  2.0822411206E+03  1.2077125330E+12  5.1061338117E-03  3.6629696506E-01
  2.0858429215E+03  1.2185189172E+12  5.1326273671E-03  3.6647864878E-01
  2.0894447224E+03  1.2293769194E+12  5.1592117890E-03  3.6666195480E-01
  2.0930465233E+03  1.2402864472E+12  5.1858872243E-03  3.6684689085E-01
  2.0966483242E+03  1.2512474065E+12  5.2126538197E-03  3.6703346464E-01
  2.1002501251E+03  1.2622597018E+12  5.2395117219E-03  3.6722168385E-01
  2.1038519260E+03  1.2733232356E+12  5.2664610774E-03  3.6741155619E-01
  2.1074537269E+03  1.2844379089E+12  5.2935020327E-03  3.6760308930E-01
  2.1110555278E+03  1.2956036210E+12  5.3206347342E-03  3.6779629084E-01
  2.1146573287E+03  1.3068202696E+12  5.3478593281E-03  3.6799116845E-01
  2.1182591296E+03  1.3180877509E+12  5.3751759607E-03  3.6818772975E-01
  2.1218609305E+03  1.3294059593E+12  5.4025847779E-03  3.6838598234E-01
  2.1254627314E+03  1.3407747876E+12  5.4300859258E-03  3.6858593381E-01
  2.1290645323E+03  1.3521941274E+12  5.4576795503E-03  3.6878759174E-01
  2.1326663332E+03  1.3636638682E+12  5.4853657971E-03  3.6899096369E-01
  2.1362681341E+03  1.3751838984E+12  5.5131448120E-03  3.6919605718E-01
  2.1398699350E+03  1.3867541047E+12  5.5410167405E-03  3.6940287976E-01
  2.1434717359E+03  1.3983743721E+12  5.5689817281E-03  3.6961143891E-01
  2.1470735368E+03  1.4100445845E+12  5.5970399202E-03  3.6982174214E-01
  2.1506753377E+03  1.4217646240E+12  5.6251914621E-03  3.7003379690E-01
  2.1542771386E+03  1.4335343713E+12  5.6534364990E-03  3.7024761067E-01
  2.1578789395E+03  1.4453537058E+12  5.6817751761E-03  3.7046319086E-01
  2.1614807404E+03  1.4572225051E+12  5.7102076382E-03  3.7068054490E-01
  2.1650825413E+03  1.4691406457E+12  5.7387340303E-03  3.7089968019E-01
  2.1686843422E+03  1.4811080027E+12  5.7673544972E-03  3.7112060411E-01
  2.1722861431E+03  1.4931244495E+12  5.7960691836E-03  3.7134332402E-01
  2.1758879440E+03  1.5051898583E+12  5.8248782340E-03  3.7156784726E-01
  2.1794897449E+03  1.5173041000E+12  5.8537817930E-03  3.7179418115E-01
  2.1830915458E+03  1.5294670440E+12  5.8827800050E-03  3.7202233301E-01
  2.1866933467E+03  1.5416785584E+12  5.9118730141E-03  3.7225231010E-01
  2.1902951476E+03  1.5539385100E+12  5.9410609647E-03  3.7248411971E-01
  2.1938969485E+03  1.5662467643E+12  5.9703440008E-03  3.7271776906E-01
  2.1974987494E+03  1.5786031854E+12  5.9997222664E-03  3.7295326539E-01
  2.2011005503E+03  1.5910076361E+12  6.0291959053E-03  3.7319061590E-01
  2.2047023512E+03  1.6034599782E+12  6.0587650613E-03  3.7342982777E-01
  2.2083041521E+03  1.6159600719E+12  6.0884298781E-03  3.7367090817E-01
  2.2119059530E+03  1.6285077763E+12  6.1181904993E-03  3.7391386423E-01
  2.2155077539E+03  1.6411029493E+12  6.1480470682E-03  3.7415870307E-01
  2.2191095548E+03  1.6537454475E+12  6.1779997283E-03  3.7440543180E-01
  2.2227113557E+03  1.6664351263E+12  6.2080486228E-03  3.7465405749E-01
  2.2263131566E+03  1.6791718401E+12  6.2381938948E-03  3.7490458720E-01
  2.2299149575E+03  1.6919554418E+12  6.2684356874E-03  3.7515702795E-01
  2.2335167584E+03  1.7047857835E+12  6.2987741434E-03  3.7541138676E-01
  2.2371185593E+03  1.7176627158E+12  6.3292094058E-03  3.7566767063E-01
  2.2407203602E+03  1.7305860884E+12  6.3597416173E-03  3.7592588650E-01
  2.2443221611E+03  1.7435557497E+12  6.3903709203E-03  3.7618604134E-01
  2.2479239620E+03  1.7565715473E+12  6.4210974575E-03  3.7644814206E-01
  2.2515257629E+03  1.7696333274E+12  6.4519213712E-03  3.7671219556E-01
  2.2551275638E+03  1.7827409352E+12  6.4828428037E-03  3.7697820870E-01
  2.2587293647E+03  1.7958942150E+12  6.5138618972E-03  3.7724618836E-01
  2.2623311656E+03  1.8090930098E+12  6.5449787938E-03  3.7751614135E-01
  2.2659329665E+03  1.8223371617E+12  6.5761936354E-03  3.7778807448E-01