TITLE = Boundary data
VARIABLES =  "x0" "x1" "p" "u" "v" "T"
ZONE   T= "ZONE0 NoSlipWall", N=238, E=237, F=FEPOINT, ET=LINESEG, SOLUTIONTIME=0.00000000000000e+00
+1.60000000000000e-01 -1.50000000000000e-01 +7.32726089179141e+02 +0.00000000000000e+00 +0.00000000000000e+00 +1.50000000000000e+03
+1.48571428571000e-01 -1.50000000000000e-01 +7.01649847019446e+02 +0.00000000000000e+00 +0.00000000000000e+00 +1.50000000000000e+03
+1.37142857143000e-01 -1.50000000000000e-01 +6.99106519418212e+02 +0.00000000000000e+00 +0.00000000000000e+00 +1.50000000000000e+03
+1.25714285714000e-01 -1.50000000000000e-01 +6.95845807619901e+02 +0.00000000000000e+00 +0.00000000000000e+00 +1.50000000000000e+03
+1.14285714286000e-01 -1.50000000000000e-01 +6.94381040245560e+02 +0.00000000000000e+00 +0.00000000000000e+00 +1.50000000000000e+03
+1.02857142857000e-01 -1.50000000000000e-01 +6.93847363393298e+02 +0.00000000000000e+00 +0.00000000000000e+00 +1.50000000000000e+03
+9.14285714286000e-02 -1.50000000000000e-01 +6.93951192144351e+02 +0.00000000000000e+00 +0.00000000000000e+00 +1.50000000000000e+03
+8.00000000000000e-02 -1.50000000000000e-01 +6.94518614281293e+02 +0.00000000000000e+00 +0.00000000000000e+00 +1.50000000000000e+03
+6.85714285714000e-02 -1.50000000000000e-01 +6.95426224528598e+02 +0.00000000000000e+00 +0.00000000000000e+00 +1.50000000000000e+03
+5.71428571429000e-02 -1.50000000000000e-01 +6.96576070822506e+02 +0.00000000000000e+00 +0.00000000000000e+00 +1.50000000000000e+03
+4.57142857143000e-02 -1.50000000000000e-01 +6.97861233454306e+02 +0.00000000000000e+00 +0.00000000000000e+00 +1.50000000000000e+03
+3.42857142857000e-02 -1.50000000000000e-01 +6.99148298851698e+02 +0.00000000000000e+00 +0.00000000000000e+00 +1.50000000000000e+03
+2.28571428571000e-02 -1.50000000000000e-01 +7.00374817764668e+02 +0.00000000000000e+00 +0.00000000000000e+00 +1.50000000000000e+03
+1.14285714286000e-02 -1.50000000000000e-01 +7.03991783557851e+02 +0.00000000000000e+00 +0.00000000000000e+00 +1.50000000000000e+03
+0.00000000000000e+00 -1.50000000000000e-01 +7.07567317934543e+02 +0.00000000000000e+00 +0.00000000000000e+00 +1.50000000000000e+03
-1.41238576806000e-02 -1.49958435229000e-01 +7.13055632865972e+02 +0.00000000000000e+00 +0.00000000000000e+00 +1.50000000000000e+03
-2.82383498443000e-02 -1.49833782011000e-01 +7.24306919659278e+02 +0.00000000000000e+00 +0.00000000000000e+00 +1.50000000000000e+03
-4.23364553869000e-02 -1.49626122508000e-01 +7.35028528083886e+02 +0.00000000000000e+00 +0.00000000000000e+00 +1.50000000000000e+03
-5.64107897885000e-02 -1.49335574890000e-01 +7.47161907037368e+02 +0.00000000000000e+00 +0.00000000000000e+00 +1.50000000000000e+03
-7.04537658032000e-02 -1.48962299554000e-01 +7.59942518040291e+02 +0.00000000000000e+00 +0.00000000000000e+00 +1.50000000000000e+03
-8.44577007558000e-02 -1.48506501732000e-01 +7.73099831765160e+02 +0.00000000000000e+00 +0.00000000000000e+00 +1.50000000000000e+03
-9.84148769520000e-02 -1.47968432448000e-01 +7.86485394834660e+02 +0.00000000000000e+00 +0.00000000000000e+00 +1.50000000000000e+03
-1.12317573213000e-01 -1.47348388793000e-01 +8.00021317564779e+02 +0.00000000000000e+00 +0.00000000000000e+00 +1.50000000000000e+03
-1.26158081138000e-01 -1.46646713803000e-01 +8.13671505959826e+02 +0.00000000000000e+00 +0.00000000000000e+00 +1.50000000000000e+03
-1.39928714066000e-01 -1.45863796716000e-01 +8.27436063824771e+02 +0.00000000000000e+00 +0.00000000000000e+00 +1.50000000000000e+03
-1.53621812640000e-01 -1.45000073005000e-01 +8.41359360233640e+02 +0.00000000000000e+00 +0.00000000000000e+00 +1.50000000000000e+03
-1.67229748883000e-01 -1.44056024525000e-01 +8.55543075023578e+02 +0.00000000000000e+00 +0.00000000000000e+00 +1.50000000000000e+03
-1.80744929583000e-01 -1.43032179638000e-01 +8.70116349187575e+02 +0.00000000000000e+00 +0.00000000000000e+00 +1.50000000000000e+03
-1.94159799418000e-01 -1.41929113542000e-01 +8.85143589715889e+02 +0.00000000000000e+00 +0.00000000000000e+00 +1.50000000000000e+03
-2.07466843901000e-01 -1.40747448647000e-01 +9.00557621298477e+02 +0.00000000000000e+00 +0.00000000000000e+00 +1.50000000000000e+03
-2.20658592129000e-01 -1.39487854740000e-01 +9.16159932337313e+02 +0.00000000000000e+00 +0.00000000000000e+00 +1.50000000000000e+03
-2.33727619541000e-01 -1.38151049581000e-01 +9.31781556393888e+02 +0.00000000000000e+00 +0.00000000000000e+00 +1.50000000000000e+03
-2.46666550539000e-01 -1.36737799477000e-01 +9.47471420503582e+02 +0.00000000000000e+00 +0.00000000000000e+00 +1.50000000000000e+03
-2.59468061008000e-01 -1.35248919941000e-01 +9.63490236419391e+02 +0.00000000000000e+00 +0.00000000000000e+00 +1.50000000000000e+03
-2.72124880662000e-01 -1.33685276295000e-01 +9.80046258567736e+02 +0.00000000000000e+00 +0.00000000000000e+00 +1.50000000000000e+03
-2.84629795415000e-01 -1.32047784832000e-01 +9.97148089808235e+02 +0.00000000000000e+00 +0.00000000000000e+00 +1.50000000000000e+03
-2.96975649574000e-01 -1.30337413982000e-01 +1.01464399727920e+03 +0.00000000000000e+00 +0.00000000000000e+00 +1.50000000000000e+03
-3.09155347809000e-01 -1.28555185438000e-01 +1.03252817421665e+03 +0.00000000000000e+00 +0.00000000000000e+00 +1.50000000000000e+03
-3.21161857102000e-01 -1.26702175836000e-01 +1.05109501806258e+03 +0.00000000000000e+00 +0.00000000000000e+00 +1.50000000000000e+03
-3.32988208570000e-01 -1.24779518796000e-01 +1.07020991790990e+03 +0.00000000000000e+00 +0.00000000000000e+00 +1.50000000000000e+03
-3.44627499139000e-01 -1.22788407218000e-01 +1.08987362462539e+03 +0.00000000000000e+00 +0.00000000000000e+00 +1.50000000000000e+03
-3.56072892829000e-01 -1.20730095510000e-01 +1.11065866587805e+03 +0.00000000000000e+00 +0.00000000000000e+00 +1.50000000000000e+03
-3.67317622310000e-01 -1.18605903247000e-01 +1.13283152773609e+03 +0.00000000000000e+00 +0.00000000000000e+00 +1.50000000000000e+03
-3.78354990096000e-01 -1.16417218890000e-01 +1.15596193286657e+03 +0.00000000000000e+00 +0.00000000000000e+00 +1.50000000000000e+03
-3.89178369550000e-01 -1.14165504080000e-01 +1.18009929840295e+03 +0.00000000000000e+00 +0.00000000000000e+00 +1.50000000000000e+03
-3.99781205781000e-01 -1.11852298804000e-01 +1.20525322953613e+03 +0.00000000000000e+00 +0.00000000000000e+00 +1.50000000000000e+03
-4.10157016687000e-01 -1.09479227995000e-01 +1.23128182465877e+03 +0.00000000000000e+00 +0.00000000000000e+00 +1.50000000000000e+03
-4.20299393864000e-01 -1.07048009057000e-01 +1.25807201652927e+03 +0.00000000000000e+00 +0.00000000000000e+00 +1.50000000000000e+03
-4.30202003160000e-01 -1.04560460116000e-01 +1.28553974557037e+03 +0.00000000000000e+00 +0.00000000000000e+00 +1.50000000000000e+03
-4.39858585840000e-01 -1.02018510879000e-01 +1.31342568926131e+03 +0.00000000000000e+00 +0.00000000000000e+00 +1.50000000000000e+03
-4.49262959839000e-01 -9.94242151741000e-02 +1.34157455840349e+03 +0.00000000000000e+00 +0.00000000000000e+00 +1.50000000000000e+03
-4.58409021518000e-01 -9.67797659343000e-02 +1.37012400253559e+03 +0.00000000000000e+00 +0.00000000000000e+00 +1.50000000000000e+03
-4.67290747301000e-01 -9.40875118917000e-02 +1.39939921425787e+03 +0.00000000000000e+00 +0.00000000000000e+00 +1.50000000000000e+03
-4.75902197290000e-01 -9.13499792520000e-02 +1.42965036968222e+03 +0.00000000000000e+00 +0.00000000000000e+00 +1.50000000000000e+03
-4.84237519664000e-01 -8.85698963984000e-02 +1.46098030334535e+03 +0.00000000000000e+00 +0.00000000000000e+00 +1.50000000000000e+03
-4.92290957249000e-01 -8.57502237190000e-02 +1.49313344651767e+03 +0.00000000000000e+00 +0.00000000000000e+00 +1.50000000000000e+03
-5.00056855847000e-01 -8.28941877857000e-02 +1.52569593533762e+03 +0.00000000000000e+00 +0.00000000000000e+00 +1.50000000000000e+03
-5.07529676985000e-01 -8.00053232992000e-02 +1.55922612421985e+03 +0.00000000000000e+00 +0.00000000000000e+00 +1.50000000000000e+03
-5.14704015294000e-01 -7.70875223111000e-02 +1.59274778980985e+03 +0.00000000000000e+00 +0.00000000000000e+00 +1.50000000000000e+03
-5.21574621954000e-01 -7.41450917684000e-02 +1.62577948794696e+03 +0.00000000000000e+00 +0.00000000000000e+00 +1.50000000000000e+03
-5.28136436735000e-01 -7.11828211596000e-02 +1.65838388814763e+03 +0.00000000000000e+00 +0.00000000000000e+00 +1.50000000000000e+03
-5.34384630569000e-01 -6.82060606760000e-02 +1.69025853722901e+03 +0.00000000000000e+00 +0.00000000000000e+00 +1.50000000000000e+03
-5.40314661962000e-01 -6.52208111164000e-02 +1.72155260331415e+03 +0.00000000000000e+00 +0.00000000000000e+00 +1.50000000000000e+03
-5.45922352102000e-01 -6.22338266615000e-02 +1.75234706206890e+03 +0.00000000000000e+00 +0.00000000000000e+00 +1.50000000000000e+03
-5.51203981027000e-01 -5.92527282295000e-02 +1.78268293326402e+03 +0.00000000000000e+00 +0.00000000000000e+00 +1.50000000000000e+03
-5.56156410559000e-01 -5.62861264933000e-02 +1.81246777490211e+03 +0.00000000000000e+00 +0.00000000000000e+00 +1.50000000000000e+03
-5.60777238148000e-01 -5.33437500093000e-02 +1.84233342047432e+03 +0.00000000000000e+00 +0.00000000000000e+00 +1.50000000000000e+03
-5.65064985033000e-01 -5.04365713768000e-02 +1.87338290334789e+03 +0.00000000000000e+00 +0.00000000000000e+00 +1.50000000000000e+03
-5.69019319841000e-01 -4.75769204279000e-02 +1.90102791075040e+03 +0.00000000000000e+00 +0.00000000000000e+00 +1.50000000000000e+03
-5.72641316023000e-01 -4.47785695377000e-02 +1.92354951857269e+03 +0.00000000000000e+00 +0.00000000000000e+00 +1.50000000000000e+03
-5.75933723608000e-01 -4.20567679584000e-02 +1.94085321553218e+03 +0.00000000000000e+00 +0.00000000000000e+00 +1.50000000000000e+03
-5.78901253863000e-01 -3.94282091641000e-02 +1.95463115264503e+03 +0.00000000000000e+00 +0.00000000000000e+00 +1.50000000000000e+03
-5.81550830656000e-01 -3.69109001763000e-02 +1.97090920416981e+03 +0.00000000000000e+00 +0.00000000000000e+00 +1.50000000000000e+03
-5.83891760647000e-01 -3.45239168545000e-02 +1.98524977735865e+03 +0.00000000000000e+00 +0.00000000000000e+00 +1.50000000000000e+03
-5.85935794353000e-01 -3.22870388038000e-02 +1.99714830178107e+03 +0.00000000000000e+00 +0.00000000000000e+00 +1.50000000000000e+03
-5.87697002277000e-01 -3.02202690495000e-02 +2.00545427512875e+03 +0.00000000000000e+00 +0.00000000000000e+00 +1.50000000000000e+03
-5.89191433902000e-01 -2.83432700734000e-02 +2.01179104894880e+03 +0.00000000000000e+00 +0.00000000000000e+00 +1.50000000000000e+03
-5.90436543562000e-01 -2.66747636041000e-02 +2.00922858437014e+03 +0.00000000000000e+00 +0.00000000000000e+00 +1.50000000000000e+03
-5.91450405171000e-01 -2.52319477015000e-02 +2.00649912532824e+03 +0.00000000000000e+00 +0.00000000000000e+00 +1.50000000000000e+03
-5.92250746672000e-01 -2.40299990504000e-02 +2.00204311740361e+03 +0.00000000000000e+00 +0.00000000000000e+00 +1.50000000000000e+03
-5.92853926763000e-01 -2.30816783151000e-02 +1.99674695128616e+03 +0.00000000000000e+00 +0.00000000000000e+00 +1.50000000000000e+03
-5.93283151865000e-01 -2.23817748629000e-02 +1.99194252954407e+03 +0.00000000000000e+00 +0.00000000000000e+00 +1.50000000000000e+03
-5.93588073361000e-01 -2.18706400750000e-02 +1.98123232402533e+03 +0.00000000000000e+00 +0.00000000000000e+00 +1.50000000000000e+03
-5.93846059680000e-01 -2.14284527600000e-02 +1.98169548924140e+03 +0.00000000000000e+00 +0.00000000000000e+00 +1.50000000000000e+03
-5.93910398248000e-01 -2.13167171024000e-02 +1.98511089348799e+03 +0.00000000000000e+00 +0.00000000000000e+00 +1.50000000000000e+03
-5.93977373703000e-01 -2.11997634438000e-02 +1.97868421119817e+03 +0.00000000000000e+00 +0.00000000000000e+00 +1.50000000000000e+03
-5.94051695736000e-01 -2.10692055873000e-02 +1.97878166894248e+03 +0.00000000000000e+00 +0.00000000000000e+00 +1.50000000000000e+03
-5.94144040967000e-01 -2.09058283974000e-02 +1.97953308943628e+03 +0.00000000000000e+00 +0.00000000000000e+00 +1.50000000000000e+03
-5.94272219721000e-01 -2.06768724416000e-02 +1.97952415217378e+03 +0.00000000000000e+00 +0.00000000000000e+00 +1.50000000000000e+03
-5.94458598752000e-01 -2.03392698531000e-02 +1.97783599712505e+03 +0.00000000000000e+00 +0.00000000000000e+00 +1.50000000000000e+03
-5.94725879685000e-01 -1.98449112416000e-02 +1.97338860140549e+03 +0.00000000000000e+00 +0.00000000000000e+00 +1.50000000000000e+03
-5.95092842804000e-01 -1.91450195499000e-02 +1.96498253291008e+03 +0.00000000000000e+00 +0.00000000000000e+00 +1.50000000000000e+03
-5.95570082716000e-01 -1.81938802240000e-02 +1.95130598026397e+03 +0.00000000000000e+00 +0.00000000000000e+00 +1.50000000000000e+03
-5.96156241969000e-01 -1.69516502476000e-02 +1.93084848078010e+03 +0.00000000000000e+00 +0.00000000000000e+00 +1.50000000000000e+03
-5.96835476102000e-01 -1.53854927697000e-02 +1.90132642560592e+03 +0.00000000000000e+00 +0.00000000000000e+00 +1.50000000000000e+03
-5.97576137198000e-01 -1.34693172028000e-02 +1.85969574933510e+03 +0.00000000000000e+00 +0.00000000000000e+00 +1.50000000000000e+03
-5.98330145073000e-01 -1.11832372179000e-02 +1.80265425284730e+03 +0.00000000000000e+00 +0.00000000000000e+00 +1.50000000000000e+03
-5.99032713016000e-01 -8.51398759892000e-03 +1.72677357954755e+03 +0.00000000000000e+00 +0.00000000000000e+00 +1.50000000000000e+03
-5.99602806860000e-01 -5.45706787791000e-03 +1.62896575328636e+03 +0.00000000000000e+00 +0.00000000000000e+00 +1.50000000000000e+03
-5.99945554079000e-01 -2.02068983990000e-03 +1.50736807744963e+03 +0.00000000000000e+00 +0.00000000000000e+00 +1.50000000000000e+03
-5.99958248506000e-01 +1.76952604051000e-03 +1.36303456065089e+03 +0.00000000000000e+00 +0.00000000000000e+00 +1.50000000000000e+03
-5.99540789724000e-01 +5.86749690400000e-03 +1.20270575510686e+03 +0.00000000000000e+00 +0.00000000000000e+00 +1.50000000000000e+03
-5.98608953172000e-01 +1.02082090824000e-02 +1.03586470779179e+03 +0.00000000000000e+00 +0.00000000000000e+00 +1.50000000000000e+03
-5.97105895094000e-01 +1.47151063267000e-02 +8.68779619291649e+02 +0.00000000000000e+00 +0.00000000000000e+00 +1.50000000000000e+03
-5.95007005916000e-01 +1.93110442082000e-02 +7.19471308767744e+02 +0.00000000000000e+00 +0.00000000000000e+00 +1.50000000000000e+03
-5.92316711949000e-01 +2.39281646294000e-02 +5.98864691927765e+02 +0.00000000000000e+00 +0.00000000000000e+00 +1.50000000000000e+03
-5.89060177846000e-01 +2.85132723127000e-02 +5.03120294028618e+02 +0.00000000000000e+00 +0.00000000000000e+00 +1.50000000000000e+03
-5.85274238731000e-01 +3.30284589102000e-02 +4.26073051292281e+02 +0.00000000000000e+00 +0.00000000000000e+00 +1.50000000000000e+03
-5.81000343899000e-01 +3.74487987561000e-02 +3.63538506144265e+02 +0.00000000000000e+00 +0.00000000000000e+00 +1.50000000000000e+03
-5.76280185423000e-01 +4.17590917584000e-02 +3.12719735013544e+02 +0.00000000000000e+00 +0.00000000000000e+00 +1.50000000000000e+03
-5.71153496960000e-01 +4.59508455471000e-02 +2.71354442463878e+02 +0.00000000000000e+00 +0.00000000000000e+00 +1.50000000000000e+03
-5.65657229102000e-01 +5.00199335070000e-02 +2.37441139858561e+02 +0.00000000000000e+00 +0.00000000000000e+00 +1.50000000000000e+03
-5.59825468525000e-01 +5.39649455258000e-02 +2.09323558117307e+02 +0.00000000000000e+00 +0.00000000000000e+00 +1.50000000000000e+03
-5.53689695459000e-01 +5.77860933781000e-02 +1.85807781682084e+02 +0.00000000000000e+00 +0.00000000000000e+00 +1.50000000000000e+03
-5.47279157313000e-01 +6.14845126387000e-02 +1.66049719679151e+02 +0.00000000000000e+00 +0.00000000000000e+00 +1.50000000000000e+03
-5.40621247833000e-01 +6.50618296770000e-02 +1.49380016536520e+02 +0.00000000000000e+00 +0.00000000000000e+00 +1.50000000000000e+03
-5.33741851063000e-01 +6.85199043158000e-02 +1.35231662642075e+02 +0.00000000000000e+00 +0.00000000000000e+00 +1.50000000000000e+03
-5.26665627976000e-01 +7.18606798015000e-02 +1.23136923045662e+02 +0.00000000000000e+00 +0.00000000000000e+00 +1.50000000000000e+03
-5.19416249247000e-01 +7.50861008337000e-02 +1.12727126822208e+02 +0.00000000000000e+00 +0.00000000000000e+00 +1.50000000000000e+03
-5.12016580725000e-01 +7.81980744697000e-02 +1.03708367833799e+02 +0.00000000000000e+00 +0.00000000000000e+00 +1.50000000000000e+03
-5.04488826314000e-01 +8.11984546608000e-02 +9.58553509687631e+01 +0.00000000000000e+00 +0.00000000000000e+00 +1.50000000000000e+03
-4.96854637189000e-01 +8.40890412825000e-02 +8.89941678120637e+01 +0.00000000000000e+00 +0.00000000000000e+00 +1.50000000000000e+03
-4.89135193553000e-01 +8.68715871509000e-02 +8.29791912259036e+01 +0.00000000000000e+00 +0.00000000000000e+00 +1.50000000000000e+03
-4.81351264248000e-01 +8.95478087402000e-02 +7.76846837038151e+01 +0.00000000000000e+00 +0.00000000000000e+00 +1.50000000000000e+03
-4.73523247972000e-01 +9.21193973699000e-02 +7.30035119032502e+01 +0.00000000000000e+00 +0.00000000000000e+00 +1.50000000000000e+03
-4.65671201573000e-01 +9.45880318482000e-02 +6.88456325022937e+01 +0.00000000000000e+00 +0.00000000000000e+00 +1.50000000000000e+03
-4.57814855840000e-01 +9.69553885804000e-02 +6.51361608220580e+01 +0.00000000000000e+00 +0.00000000000000e+00 +1.50000000000000e+03
-4.49973622880000e-01 +9.92231509893000e-02 +6.18135810334757e+01 +0.00000000000000e+00 +0.00000000000000e+00 +1.50000000000000e+03
-4.42166595940000e-01 +1.01393016793000e-01 +5.88259885338532e+01 +0.00000000000000e+00 +0.00000000000000e+00 +1.50000000000000e+03
-4.34412543882000e-01 +1.03466704130000e-01 +5.61309718108724e+01 +0.00000000000000e+00 +0.00000000000000e+00 +1.50000000000000e+03
-4.26729900706000e-01 +1.05445955304000e-01 +5.36942182783226e+01 +0.00000000000000e+00 +0.00000000000000e+00 +1.50000000000000e+03
-4.19136751639000e-01 +1.07332539177000e-01 +5.14853980415881e+01 +0.00000000000000e+00 +0.00000000000000e+00 +1.50000000000000e+03
-4.11650816362000e-01 +1.09128251820000e-01 +4.94794562304860e+01 +0.00000000000000e+00 +0.00000000000000e+00 +1.50000000000000e+03
-4.04289430077000e-01 +1.10834915797000e-01 +4.76560631760542e+01 +0.00000000000000e+00 +0.00000000000000e+00 +1.50000000000000e+03
-3.97069522908000e-01 +1.12454378025000e-01 +4.59992897428523e+01 +0.00000000000000e+00 +0.00000000000000e+00 +1.50000000000000e+03
-3.90007598108000e-01 +1.13988506401000e-01 +4.44976608449455e+01 +0.00000000000000e+00 +0.00000000000000e+00 +1.50000000000000e+03
-3.83119709483000e-01 +1.15439185409000e-01 +4.31456990842489e+01 +0.00000000000000e+00 +0.00000000000000e+00 +1.50000000000000e+03
-3.76421438017000e-01 +1.16808310143000e-01 +4.19544817063056e+01 +0.00000000000000e+00 +0.00000000000000e+00 +1.50000000000000e+03
-3.69927868759000e-01 +1.18097780473000e-01 +4.09855150169342e+01 +0.00000000000000e+00 +0.00000000000000e+00 +1.50000000000000e+03
-3.63653567188000e-01 +1.19309493351000e-01 +4.03166160865291e+01 +0.00000000000000e+00 +0.00000000000000e+00 +1.50000000000000e+03
-3.57612556054000e-01 +1.20445335102000e-01 +4.00162679913001e+01 +0.00000000000000e+00 +0.00000000000000e+00 +1.50000000000000e+03
-3.51818292506000e-01 +1.21507172948000e-01 +4.01683423620805e+01 +0.00000000000000e+00 +0.00000000000000e+00 +1.50000000000000e+03
-3.46283645709000e-01 +1.22496846102000e-01 +4.08940770058340e+01 +0.00000000000000e+00 +0.00000000000000e+00 +1.50000000000000e+03
-3.41020875106000e-01 +1.23416156462000e-01 +4.23360885058730e+01 +0.00000000000000e+00 +0.00000000000000e+00 +1.50000000000000e+03
-3.36041609479000e-01 +1.24266859219000e-01 +4.45952843588614e+01 +0.00000000000000e+00 +0.00000000000000e+00 +1.50000000000000e+03
-3.31356829425000e-01 +1.25050652679000e-01 +4.75569327854607e+01 +0.00000000000000e+00 +0.00000000000000e+00 +1.50000000000000e+03
-3.26976876882000e-01 +1.25769164062000e-01 +5.09776032951927e+01 +0.00000000000000e+00 +0.00000000000000e+00 +1.50000000000000e+03
-3.22911574185000e-01 +1.26423918662000e-01 +5.46432127930369e+01 +0.00000000000000e+00 +0.00000000000000e+00 +1.50000000000000e+03
-3.19170572079000e-01 +1.27016275061000e-01 +5.83868938239577e+01 +0.00000000000000e+00 +0.00000000000000e+00 +1.50000000000000e+03
-3.15763858106000e-01 +1.27547340740000e-01 +6.19994727344102e+01 +0.00000000000000e+00 +0.00000000000000e+00 +1.50000000000000e+03
-3.12701852138000e-01 +1.28017955730000e-01 +6.53789920051496e+01 +0.00000000000000e+00 +0.00000000000000e+00 +1.50000000000000e+03
-3.09994140181000e-01 +1.28428879444000e-01 +6.84761609006586e+01 +0.00000000000000e+00 +0.00000000000000e+00 +1.50000000000000e+03
-3.07646441778000e-01 +1.28781226056000e-01 +7.11708004620500e+01 +0.00000000000000e+00 +0.00000000000000e+00 +1.50000000000000e+03
-3.05656896076000e-01 +1.29076978479000e-01 +7.34314147766352e+01 +0.00000000000000e+00 +0.00000000000000e+00 +1.50000000000000e+03
-3.04013599354000e-01 +1.29319307227000e-01 +7.52269694725451e+01 +0.00000000000000e+00 +0.00000000000000e+00 +1.50000000000000e+03
-3.02694114991000e-01 +1.29512613489000e-01 +7.66040707780987e+01 +0.00000000000000e+00 +0.00000000000000e+00 +1.50000000000000e+03
-3.01666080946000e-01 +1.29662440478000e-01 +7.76252299987020e+01 +0.00000000000000e+00 +0.00000000000000e+00 +1.50000000000000e+03
-3.00888569529000e-01 +1.29775303051000e-01 +7.83619343266179e+01 +0.00000000000000e+00 +0.00000000000000e+00 +1.50000000000000e+03
-3.00315097151000e-01 +1.29858298288000e-01 +7.88808171638882e+01 +0.00000000000000e+00 +0.00000000000000e+00 +1.50000000000000e+03
-2.99898399618000e-01 +1.29918471942000e-01 +7.92404374806312e+01 +0.00000000000000e+00 +0.00000000000000e+00 +1.50000000000000e+03
-2.99595320255000e-01 +1.29962168495000e-01 +7.94876773741572e+01 +0.00000000000000e+00 +0.00000000000000e+00 +1.50000000000000e+03
-2.99369900498000e-01 +1.29994630293000e-01 +7.96573644877306e+01 +0.00000000000000e+00 +0.00000000000000e+00 +1.50000000000000e+03
-2.99193948103000e-01 +1.30019945893000e-01 +7.97715557476932e+01 +0.00000000000000e+00 +0.00000000000000e+00 +1.50000000000000e+03
-2.99045481720000e-01 +1.30041291467000e-01 +7.98364239251059e+01 +0.00000000000000e+00 +0.00000000000000e+00 +1.50000000000000e+03
-2.98905887100000e-01 +1.30061348660000e-01 +7.98516250995468e+01 +0.00000000000000e+00 +0.00000000000000e+00 +1.50000000000000e+03
-2.98705827588000e-01 +1.30295638260000e-01 +7.99014397681530e+01 +0.00000000000000e+00 +0.00000000000000e+00 +1.50000000000000e+03
-2.98417660624000e-01 +1.30632097170000e-01 +8.01206624740195e+01 +0.00000000000000e+00 +0.00000000000000e+00 +1.50000000000000e+03
-2.98008184446000e-01 +1.31108153683000e-01 +8.05412781053838e+01 +0.00000000000000e+00 +0.00000000000000e+00 +1.50000000000000e+03
-2.97459263220000e-01 +1.31742611468000e-01 +8.12029083537716e+01 +0.00000000000000e+00 +0.00000000000000e+00 +1.50000000000000e+03
-2.96761251959000e-01 +1.32543330102000e-01 +8.21222136848790e+01 +0.00000000000000e+00 +0.00000000000000e+00 +1.50000000000000e+03
-2.95908677802000e-01 +1.33512313884000e-01 +8.32962108106212e+01 +0.00000000000000e+00 +0.00000000000000e+00 +1.50000000000000e+03
-2.94897886951000e-01 +1.34648514979000e-01 +8.47069913609226e+01 +0.00000000000000e+00 +0.00000000000000e+00 +1.50000000000000e+03
-2.93725897815000e-01 +1.35949227007000e-01 +8.63247018722240e+01 +0.00000000000000e+00 +0.00000000000000e+00 +1.50000000000000e+03
-2.92389889996000e-01 +1.37410735823000e-01 +8.81143554738195e+01 +0.00000000000000e+00 +0.00000000000000e+00 +1.50000000000000e+03
-2.90887001142000e-01 +1.39028613579000e-01 +9.00279534978511e+01 +0.00000000000000e+00 +0.00000000000000e+00 +1.50000000000000e+03
-2.89214264948000e-01 +1.40797852184000e-01 +9.20185664664102e+01 +0.00000000000000e+00 +0.00000000000000e+00 +1.50000000000000e+03
-2.87368612294000e-01 +1.42712928402000e-01 +9.40378048837921e+01 +0.00000000000000e+00 +0.00000000000000e+00 +1.50000000000000e+03
-2.85346899686000e-01 +1.44767841662000e-01 +9.60079458190233e+01 +0.00000000000000e+00 +0.00000000000000e+00 +1.50000000000000e+03
-2.83145949832000e-01 +1.46956142103000e-01 +9.78457971179764e+01 +0.00000000000000e+00 +0.00000000000000e+00 +1.50000000000000e+03
-2.80762597132000e-01 +1.49270956296000e-01 +9.94837054051194e+01 +0.00000000000000e+00 +0.00000000000000e+00 +1.50000000000000e+03
-2.78193735017000e-01 +1.51705013503000e-01 +1.00920160848454e+02 +0.00000000000000e+00 +0.00000000000000e+00 +1.50000000000000e+03
-2.75436363222000e-01 +1.54250673630000e-01 +1.02138352243244e+02 +0.00000000000000e+00 +0.00000000000000e+00 +1.50000000000000e+03
-2.72487634285000e-01 +1.56899957017000e-01 +1.03048775178476e+02 +0.00000000000000e+00 +0.00000000000000e+00 +1.50000000000000e+03
-2.69344898042000e-01 +1.59644576381000e-01 +1.03562872043794e+02 +0.00000000000000e+00 +0.00000000000000e+00 +1.50000000000000e+03
-2.66005743896000e-01 +1.62475970302000e-01 +1.03645291900763e+02 +0.00000000000000e+00 +0.00000000000000e+00 +1.50000000000000e+03
-2.62468040136000e-01 +1.65385338405000e-01 +1.03316551614242e+02 +0.00000000000000e+00 +0.00000000000000e+00 +1.50000000000000e+03
-2.58729969827000e-01 +1.68363677550000e-01 +1.02585393424614e+02 +0.00000000000000e+00 +0.00000000000000e+00 +1.50000000000000e+03
-2.54790063131000e-01 +1.71401818943000e-01 +1.01410785547013e+02 +0.00000000000000e+00 +0.00000000000000e+00 +1.50000000000000e+03
-2.50647225627000e-01 +1.74490465628000e-01 +9.97784596031604e+01 +0.00000000000000e+00 +0.00000000000000e+00 +1.50000000000000e+03
-2.46300762551000e-01 +1.77620229999000e-01 +9.77170876149547e+01 +0.00000000000000e+00 +0.00000000000000e+00 +1.50000000000000e+03
-2.41750398803000e-01 +1.80781671060000e-01 +9.52981261464931e+01 +0.00000000000000e+00 +0.00000000000000e+00 +1.50000000000000e+03
-2.36996294834000e-01 +1.83965330914000e-01 +9.26332926399801e+01 +0.00000000000000e+00 +0.00000000000000e+00 +1.50000000000000e+03
-2.32039058373000e-01 +1.87161770299000e-01 +8.97982397471611e+01 +0.00000000000000e+00 +0.00000000000000e+00 +1.50000000000000e+03
-2.26879752267000e-01 +1.90361602750000e-01 +8.68014758037471e+01 +0.00000000000000e+00 +0.00000000000000e+00 +1.50000000000000e+03
-2.21519898477000e-01 +1.93555527263000e-01 +8.36703376426285e+01 +0.00000000000000e+00 +0.00000000000000e+00 +1.50000000000000e+03
-2.15961478599000e-01 +1.96734359085000e-01 +8.04433605678721e+01 +0.00000000000000e+00 +0.00000000000000e+00 +1.50000000000000e+03
-2.10206931188000e-01 +1.99889058620000e-01 +7.71488285688559e+01 +0.00000000000000e+00 +0.00000000000000e+00 +1.50000000000000e+03
-2.04259146122000e-01 +2.03010758268000e-01 +7.38113675625605e+01 +0.00000000000000e+00 +0.00000000000000e+00 +1.50000000000000e+03
-1.98121456365000e-01 +2.06090787073000e-01 +7.04586416958946e+01 +0.00000000000000e+00 +0.00000000000000e+00 +1.50000000000000e+03
-1.91797627469000e-01 +2.09120693227000e-01 +6.71204171833816e+01 +0.00000000000000e+00 +0.00000000000000e+00 +1.50000000000000e+03
-1.85291845093000e-01 +2.12092264469000e-01 +6.38234815348559e+01 +0.00000000000000e+00 +0.00000000000000e+00 +1.50000000000000e+03
-1.78608700894000e-01 +2.14997546224000e-01 +6.05893194122155e+01 +0.00000000000000e+00 +0.00000000000000e+00 +1.50000000000000e+03
-1.71753177098000e-01 +2.17828857831000e-01 +5.74354395320482e+01 +0.00000000000000e+00 +0.00000000000000e+00 +1.50000000000000e+03
-1.64730629902000e-01 +2.20578806754000e-01 +5.43757637473669e+01 +0.00000000000000e+00 +0.00000000000000e+00 +1.50000000000000e+03
-1.57546772118000e-01 +2.23240300883000e-01 +5.14214568887058e+01 +0.00000000000000e+00 +0.00000000000000e+00 +1.50000000000000e+03
-1.50207655201000e-01 +2.25806559257000e-01 +4.85810271439556e+01 +0.00000000000000e+00 +0.00000000000000e+00 +1.50000000000000e+03
-1.42719650844000e-01 +2.28271121102000e-01 +4.58609645754547e+01 +0.00000000000000e+00 +0.00000000000000e+00 +1.50000000000000e+03
-1.35089432329000e-01 +2.30627853421000e-01 +4.32658106696514e+01 +0.00000000000000e+00 +0.00000000000000e+00 +1.50000000000000e+03
-1.27323955856000e-01 +2.32870957381000e-01 +4.07961555985502e+01 +0.00000000000000e+00 +0.00000000000000e+00 +1.50000000000000e+03
-1.19430441775000e-01 +2.34994973435000e-01 +3.84502997548005e+01 +0.00000000000000e+00 +0.00000000000000e+00 +1.50000000000000e+03
-1.11416356081000e-01 +2.36994785521000e-01 +3.62175512074529e+01 +0.00000000000000e+00 +0.00000000000000e+00 +1.50000000000000e+03
-1.03289392030000e-01 +2.38865624308000e-01 +3.40804192150970e+01 +0.00000000000000e+00 +0.00000000000000e+00 +1.50000000000000e+03
-9.50574520071000e-02 +2.40603069714000e-01 +3.20360089890686e+01 +0.00000000000000e+00 +0.00000000000000e+00 +1.50000000000000e+03
-8.67286297496000e-02 +2.42203052763000e-01 +3.00920683125692e+01 +0.00000000000000e+00 +0.00000000000000e+00 +1.50000000000000e+03
-7.83111928694000e-02 +2.43661856981000e-01 +2.82548131024779e+01 +0.00000000000000e+00 +0.00000000000000e+00 +1.50000000000000e+03
-6.98135656985000e-02 +2.44976119248000e-01 +2.65246809506124e+01 +0.00000000000000e+00 +0.00000000000000e+00 +1.50000000000000e+03
-6.12443124900000e-02 +2.46142830394000e-01 +2.48986437187488e+01 +0.00000000000000e+00 +0.00000000000000e+00 +1.50000000000000e+03
-5.26121209301000e-02 +2.47159335473000e-01 +2.33727491746246e+01 +0.00000000000000e+00 +0.00000000000000e+00 +1.50000000000000e+03
-4.39257859773000e-02 +2.48023333879000e-01 +2.19436737512572e+01 +0.00000000000000e+00 +0.00000000000000e+00 +1.50000000000000e+03
-3.51941939719000e-02 +2.48732879334000e-01 +2.06103265075211e+01 +0.00000000000000e+00 +0.00000000000000e+00 +1.50000000000000e+03
-2.64263069997000e-02 +2.49286379763000e-01 +1.93742508247119e+01 +0.00000000000000e+00 +0.00000000000000e+00 +1.50000000000000e+03
-1.76313211587000e-02 +2.49682590869000e-01 +1.82408404540265e+01 +0.00000000000000e+00 +0.00000000000000e+00 +1.50000000000000e+03
-8.81905684396000e-03 +2.49920624380000e-01 +1.72369049678573e+01 +0.00000000000000e+00 +0.00000000000000e+00 +1.50000000000000e+03
+0.00000000000000e+00 +2.50000000000000e-01 +1.63867227270639e+01 +0.00000000000000e+00 +0.00000000000000e+00 +1.50000000000000e+03
+1.14285714286000e-02 +2.50000000000000e-01 +1.57219670122733e+01 +0.00000000000000e+00 +0.00000000000000e+00 +1.50000000000000e+03
+2.28571428571000e-02 +2.50000000000000e-01 +1.51862937258370e+01 +0.00000000000000e+00 +0.00000000000000e+00 +1.50000000000000e+03