TITLE = Unstructured grid data
VARIABLES =  "x0" "x1" "p" "u" "v" "T"
ZONE   T= "ZONE0 Triag", N=16152, E=31777, F=FEPOINT, ET=TRIANGLE, SOLUTIONTIME=0.00000000000000e+00	
+1.60000000000000e-01 -5.84482758621000e-01 +2.52001271493147e+00 +6.21423021804623e+03 +3.58778748902692e+03 +2.05000000000005e+02
+1.60000000000000e-01 -5.68965517241000e-01 +2.52001271493146e+00 +6.21423021804623e+03 +3.58778748902692e+03 +2.05000000000000e+02
+1.60000000000000e-01 -5.53448275862000e-01 +2.52001271493141e+00 +6.21423021804623e+03 +3.58778748902692e+03 +2.04999999999995e+02
+1.60000000000000e-01 -5.37931034483000e-01 +2.52001271493148e+00 +6.21423021804623e+03 +3.58778748902692e+03 +2.05000000000000e+02
+1.60000000000000e-01 -5.22413793103000e-01 +2.52001271494121e+00 +6.21423021804602e+03 +3.58778748902632e+03 +2.05000000000557e+02
+1.60000000000000e-01 -5.06896551724000e-01 +2.52001271835236e+00 +6.21423021800560e+03 +3.58778748880061e+03 +2.05000000178914e+02
+1.60000000000000e-01 -4.91379310345000e-01 +2.52001384352727e+00 +6.21423021440331e+03 +3.58778741836431e+03 +2.05000058472444e+02
+1.60000000000000e-01 -4.75862068966000e-01 +2.52034479363288e+00 +6.21423029651838e+03 +3.58776949908151e+03 +2.05019539418581e+02
+1.60000000000000e-01 -4.60344827586000e-01 +2.61880185477556e+00 +6.21452949043539e+03 +3.58388616986914e+03 +2.11899340476066e+02
+1.60000000000000e-01 -4.44827586207000e-01 +1.56152468942890e+01 +6.21482586621110e+03 +3.30806317727284e+03 +1.09267751666449e+03
+1.60000000000000e-01 -4.29310344828000e-01 +2.24717202862221e+02 +5.87691822279886e+03 +1.42402643400440e+03 +7.56753122772340e+03
+1.60000000000000e-01 -4.13793103448000e-01 +6.82567209089364e+02 +5.27721515545746e+03 -5.83728972290192e+01 +1.19175756716360e+04
+1.60000000000000e-01 -3.98275862069000e-01 +8.18779806036112e+02 +5.06983608420267e+03 -3.19413832362173e+02 +1.29328274149985e+04
+1.60000000000000e-01 -3.82758620690000e-01 +8.03202993190023e+02 +5.01700897711784e+03 -2.96223309837042e+02 +1.31977052411543e+04
+1.60000000000000e-01 -3.67241379310000e-01 +7.80801577223825e+02 +4.98033005533488e+03 -2.57639184716596e+02 +1.33952100577073e+04
+1.60000000000000e-01 -3.51724137931000e-01 +7.59290772767266e+02 +4.94442755010213e+03 -2.17872602652895e+02 +1.35992848980995e+04
+1.60000000000000e-01 -3.36206896552000e-01 +7.41423587633573e+02 +4.89967570823081e+03 -1.80810505183388e+02 +1.38496319110265e+04
+1.60000000000000e-01 -3.20689655172000e-01 +7.21207121917570e+02 +4.84973921297829e+03 -1.52592270999682e+02 +1.41207691572044e+04
+1.60000000000000e-01 -3.05172413793000e-01 +7.06198549272945e+02 +4.78692764197923e+03 -1.21194860495259e+02 +1.44470825275557e+04
+1.60000000000000e-01 -2.89655172414000e-01 +6.96956847310441e+02 +4.70896787977417e+03 -8.91808064018680e+01 +1.48330288547407e+04
+1.60000000000000e-01 -2.74137931034000e-01 +6.94250119972938e+02 +4.61288250743867e+03 -6.40246379658996e+01 +1.52845523112790e+04
+1.60000000000000e-01 -2.58620689655000e-01 +6.93049530375114e+02 +4.50148990814453e+03 -4.18698836768100e+01 +1.57746644570105e+04
+1.60000000000000e-01 -2.43103448276000e-01 +6.91572722539125e+02 +4.37621494270992e+03 -3.49209339680297e+01 +1.62623243034498e+04
+1.60000000000000e-01 -2.27586206897000e-01 +6.91323351823523e+02 +4.24061345523690e+03 -3.27948162367816e+01 +1.66621571660109e+04
+1.60000000000000e-01 -2.12068965517000e-01 +6.91262855131696e+02 +4.09035246520089e+03 -3.43558415019072e+01 +1.68716152409815e+04
+1.60000000000000e-01 -1.96551724138000e-01 +6.90407552147406e+02 +3.88110629857816e+03 -3.63019756941887e+01 +1.66532269333553e+04
+1.60000000000000e-01 -1.82611050547000e-01 +6.93838389299035e+02 +3.49366101591241e+03 -3.08925972805942e+01 +1.54611080524393e+04
+1.48553842345000e-01 -1.82594996857000e-01 +6.92116888917328e+02 +3.50413882026348e+03 -3.74182468821879e+01 +1.54884109307438e+04
+1.37111550416000e-01 -1.82583057225000e-01 +6.91674532911411e+02 +3.50528572880532e+03 -3.20900847660934e+01 +1.54984065722807e+04
+1.25666269812000e-01 -1.82569206729000e-01 +6.91388396613923e+02 +3.50635236414253e+03 -2.89218928749738e+01 +1.55107832708699e+04
+1.14213887698000e-01 -1.82550747868000e-01 +6.92933645631462e+02 +3.50156115558061e+03 -2.99979795756026e+01 +1.55230312939499e+04
+1.02749909966000e-01 -1.82525882955000e-01 +6.93052175597261e+02 +3.51195978141255e+03 -2.82822048120482e+01 +1.55759687754496e+04
+9.12676965640000e-02 -1.82493444340000e-01 +6.94057392470867e+02 +3.51720224712138e+03 -2.88210764049353e+01 +1.56207687996198e+04
+7.97566007306000e-02 -1.82453406408000e-01 +6.95335557085541e+02 +3.52293733053244e+03 -3.00222276939787e+01 +1.56721789878348e+04
+6.81996359972000e-02 -1.82407748764000e-01 +6.96573990978295e+02 +3.53048975046192e+03 -3.09035807817566e+01 +1.57312407392808e+04
+5.65709992675000e-02 -1.82361019287000e-01 +6.98629165309308e+02 +3.53520782059102e+03 -3.31520497123702e+01 +1.57909633489048e+04
+4.48325746150000e-02 -1.82320436109000e-01 +7.00799353495775e+02 +3.54210933105588e+03 -3.48475884999371e+01 +1.58624173259954e+04
+3.29365291833000e-02 -1.82293074106000e-01 +7.03892819517598e+02 +3.54616592555537e+03 -3.85327902441446e+01 +1.59366148764236e+04
+2.08284827989000e-02 -1.82280665290000e-01 +7.06131572319975e+02 +3.55525618199985e+03 -4.24975573710794e+01 +1.60217894621029e+04
+8.45678568203000e-03 -1.82274972144000e-01 +7.11379947319638e+02 +3.55076224738689e+03 -5.64284084014805e+01 +1.60951958567725e+04
-4.21362567984000e-03 -1.82255631298000e-01 +7.20375039018690e+02 +3.54715347794765e+03 -6.62610975690766e+01 +1.62241377948452e+04
-5.11568580419000e-03 -1.95110317889000e-01 +7.30525735459154e+02 +3.81742924901043e+03 -8.84199626860942e+01 +1.73101578073826e+04
-1.81063755285000e-02 -1.95042947907000e-01 +7.40623145380788e+02 +3.80716448519489e+03 -1.05435204053482e+02 +1.74242370039072e+04
-3.13589910556000e-02 -1.94907947084000e-01 +7.51724309629188e+02 +3.79504954191135e+03 -1.23061247357975e+02 +1.75448390998485e+04
-4.48463009544000e-02 -1.94685182539000e-01 +7.63431813184759e+02 +3.78149257300980e+03 -1.41481097578895e+02 +1.76679935279898e+04
-5.85270825506000e-02 -1.94363379067000e-01 +7.75726926939557e+02 +3.76618687761800e+03 -1.59937935514306e+02 +1.77923059445023e+04
-7.23520879474000e-02 -1.93940614156000e-01 +7.88593247896781e+02 +3.74927386344025e+03 -1.78633259279764e+02 +1.79179350694206e+04
-8.62708789218000e-02 -1.93421867608000e-01 +8.01870047166252e+02 +3.73115675774585e+03 -1.97234561636165e+02 +1.80440326745551e+04
-1.00237704081000e-01 -1.92814989391000e-01 +8.15473690697153e+02 +3.71215735807505e+03 -2.15961305302836e+02 +1.81705058207261e+04
-1.14214913606000e-01 -1.92127063149000e-01 +8.29287361902935e+02 +3.69257599287090e+03 -2.34760598116596e+02 +1.82967659904707e+04
-1.28173515954000e-01 -1.91362548723000e-01 +8.43271523506498e+02 +3.67253249796305e+03 -2.53695588077967e+02 +1.84225916760404e+04
-1.42091752369000e-01 -1.90523223655000e-01 +8.57379061629844e+02 +3.65210342864976e+03 -2.72757792235081e+02 +1.85475703924818e+04
-1.55953019459000e-01 -1.89609051825000e-01 +8.71550407627086e+02 +3.63135977467054e+03 -2.92039935167435e+02 +1.86711826154338e+04
-1.69744051975000e-01 -1.88619142519000e-01 +8.85781153886193e+02 +3.61028270931642e+03 -3.11542431551342e+02 +1.87932092369341e+04
-1.83453662528000e-01 -1.87552415121000e-01 +9.00267298080052e+02 +3.58854433243216e+03 -3.31041930849506e+02 +1.89146303620546e+04
-1.97071969874000e-01 -1.86407939570000e-01 +9.15391225963416e+02 +3.56552043393932e+03 -3.50051463756498e+02 +1.90375369621300e+04
-2.10589949437000e-01 -1.85185057776000e-01 +9.31430482734981e+02 +3.54072933319905e+03 -3.68227278572960e+02 +1.91634017594171e+04
-2.23999169053000e-01 -1.83883392373000e-01 +9.48114153439257e+02 +3.51451870835719e+03 -3.85894017674457e+02 +1.92906431301310e+04
-2.37291626278000e-01 -1.82502810686000e-01 +9.64699645619839e+02 +3.48799611459038e+03 -4.03919080934256e+02 +1.94149273516136e+04
-2.50459642746000e-01 -1.81043377927000e-01 +9.80635677789880e+02 +3.46156692714513e+03 -4.23128544485282e+02 +1.95337347628972e+04
-2.63495792844000e-01 -1.79505313512000e-01 +9.96387697650910e+02 +3.43526942146261e+03 -4.42493994658362e+02 +1.96486569557371e+04
-2.76392854643000e-01 -1.77888954742000e-01 +1.01295787890744e+03 +3.40649879841965e+03 -4.61137794535226e+02 +1.97670893941066e+04
-2.89143776047000e-01 -1.76194728109000e-01 +1.03043425535641e+03 +3.37589267072865e+03 -4.77912504482960e+02 +1.98884376739445e+04
-3.01741651603000e-01 -1.74423127126000e-01 +1.04897667086111e+03 +3.33932992589082e+03 -4.95990680929235e+02 +2.00198915972681e+04
-3.00371485615000e-01 -1.61911404447000e-01 +1.03588723959426e+03 +3.19816221388751e+03 -4.68015240574482e+02 +1.97862755802167e+04
-3.12734761277000e-01 -1.60086111979000e-01 +1.05197329119371e+03 +3.17420255558435e+03 -4.83960490270727e+02 +1.99399567578559e+04
-3.24929340089000e-01 -1.58186494056000e-01 +1.07219062807429e+03 +3.12958022876750e+03 -5.01567233132269e+02 +2.00985940176676e+04
-3.36948568195000e-01 -1.56213383149000e-01 +1.09245603231064e+03 +3.09262132650156e+03 -5.18567461178938e+02 +2.02659289415049e+04
-3.48785879601000e-01 -1.54167641897000e-01 +1.11184120072620e+03 +3.05803834152660e+03 -5.36306936671072e+02 +2.04277082674773e+04
-3.60434796883000e-01 -1.52050161833000e-01 +1.13168238315191e+03 +3.02331072865387e+03 -5.52862419610545e+02 +2.05892279047587e+04
-3.71888931859000e-01 -1.49861862999000e-01 +1.15422629123043e+03 +2.98405540875976e+03 -5.66713988550135e+02 +2.07612637152073e+04
-3.83141985902000e-01 -1.47603694521000e-01 +1.17744605935671e+03 +2.94254911452057e+03 -5.80327817564526e+02 +2.09342046867302e+04
-3.94187749628000e-01 -1.45276636349000e-01 +1.20130708251586e+03 +2.89903773957636e+03 -5.93583233041183e+02 +2.11073042295308e+04
-4.05020101665000e-01 -1.42881702457000e-01 +1.22643125506760e+03 +2.85299988492807e+03 -6.04912804623480e+02 +2.12836918715218e+04
-4.15633006250000e-01 -1.40419945875000e-01 +1.25252338626126e+03 +2.80433611017069e+03 -6.15021818264929e+02 +2.14622956751258e+04
-4.26020509373000e-01 -1.37892466060000e-01 +1.27912850679724e+03 +2.75350993883683e+03 -6.24324994004637e+02 +2.16410925613475e+04
-4.36176733216000e-01 -1.35300419121000e-01 +1.30669814326787e+03 +2.70018347054949e+03 -6.32038690438730e+02 +2.18221287761037e+04
-4.46095868659000e-01 -1.32645031505000e-01 +1.33522956712653e+03 +2.64359736618441e+03 -6.38792488368967e+02 +2.20060159239308e+04
-4.55772165678000e-01 -1.29927617736000e-01 +1.36337983175213e+03 +2.58557263053390e+03 -6.45849491012241e+02 +2.21866108084050e+04
-4.65199921583000e-01 -1.27149602752000e-01 +1.39082329894213e+03 +2.52700614228108e+03 -6.52300419952487e+02 +2.23628482446773e+04
-4.74373467175000e-01 -1.24312549263000e-01 +1.41761716742632e+03 +2.46833502461089e+03 -6.56770480924617e+02 +2.25348955876451e+04
-4.83287151110000e-01 -1.21418190383000e-01 +1.44463220256927e+03 +2.40775632638289e+03 -6.57687278175936e+02 +2.27080114382793e+04
-4.91935323034000e-01 -1.18468467489000e-01 +1.47075885240406e+03 +2.34728446174702e+03 -6.54220176831943e+02 +2.28764426550138e+04
-5.00312316317000e-01 -1.15465572960000e-01 +1.49722528322453e+03 +2.28347533204701e+03 -6.41773408142488e+02 +2.30510698452747e+04
-4.98004526274000e-01 -1.07112649117000e-01 +1.49439322760194e+03 +2.12954161097932e+03 -6.25106181403529e+02 +2.29225134200542e+04
-5.06008206120000e-01 -1.04126204193000e-01 +1.52554732018719e+03 +2.04041387807235e+03 -6.15988873360277e+02 +2.31387987846615e+04
-5.13726463926000e-01 -1.01097536233000e-01 +1.55773731772840e+03 +1.95636016409199e+03 -6.01850113906882e+02 +2.33642155119164e+04
-5.21153608035000e-01 -9.80304777607000e-02 +1.58970213653476e+03 +1.87278691433189e+03 -5.85542359010474e+02 +2.35873344595191e+04
-5.28283923984000e-01 -9.49294517431000e-02 +1.62040261215313e+03 +1.78388778447325e+03 -5.67539854393114e+02 +2.37990038699526e+04
-5.35111685587000e-01 -9.17995472681000e-02 +1.65021040500200e+03 +1.69765981687643e+03 -5.47365228343200e+02 +2.40066946323348e+04
-5.41631180580000e-01 -8.86465824421000e-02 +1.67848490537382e+03 +1.60745140942809e+03 -5.23766489101761e+02 +2.42005495514133e+04
-5.47836753414000e-01 -8.54771464375000e-02 +1.70543775543345e+03 +1.51730428265788e+03 -4.97160585592977e+02 +2.43843433987529e+04
-5.53722866481000e-01 -8.22986138770000e-02 +1.73086092498726e+03 +1.42710843030791e+03 -4.66573483083039e+02 +2.45544880760677e+04
-5.59284180080000e-01 -7.91191283685000e-02 +1.75507357258258e+03 +1.33961630007680e+03 -4.30224122244218e+02 +2.47109879709660e+04
-5.64515652586000e-01 -7.59475582610000e-02 +1.77327985986502e+03 +1.25924736886992e+03 -3.86835076209860e+02 +2.48313038941515e+04
-5.62155358368000e-01 -7.04684294735000e-02 +1.78144321391477e+03 +1.16873974942083e+03 -4.24851965165066e+02 +2.43438212341608e+04
-5.66977050367000e-01 -6.74007083627000e-02 +1.80581253018488e+03 +1.07699092890392e+03 -3.82284756764221e+02 +2.44640422956885e+04
-5.71461245624000e-01 -6.43718189859000e-02 +1.83071380607599e+03 +1.00088608697829e+03 -3.21906408168025e+02 +2.46288184016693e+04
-5.75605212761000e-01 -6.13943136987000e-02 +1.85290467031466e+03 +9.28212350171769e+02 -2.56610725750951e+02 +2.47895178596024e+04
-5.79407387503000e-01 -5.84809009906000e-02 +1.87184065121803e+03 +8.46960540362704e+02 -1.86300222821441e+02 +2.49223965962996e+04
-5.82867885343000e-01 -5.56441902537000e-02 +1.88372262259284e+03 +7.67796572364193e+02 -1.12024841082176e+02 +2.50222210976034e+04
-5.80944996811000e-01 -5.18984057720000e-02 +1.89451998431278e+03 +6.72417848729148e+02 -1.72040419288238e+02 +2.41424274524087e+04
-5.84022695541000e-01 -4.92357523002000e-02 +1.90995140208237e+03 +5.71223069471329e+02 -1.08776859088846e+02 +2.41805396723423e+04
-5.86767177058000e-01 -4.66891306199000e-02 +1.92307214996511e+03 +4.93900088356915e+02 -3.81739262242285e+01 +2.43053750795397e+04
-5.89187026020000e-01 -4.42698748195000e-02 +1.93242288470681e+03 +4.34441998561392e+02 +2.83245424770471e+01 +2.44389737337542e+04
-5.91295556182000e-01 -4.19872176838000e-02 +1.93958272774963e+03 +3.96993566301056e+02 +1.04316798422511e+02 +2.45554556611010e+04
-5.89813034689000e-01 -3.94146775534000e-02 +1.94728348464572e+03 +3.34177186677991e+02 +4.19173081222331e+01 +2.31715115263910e+04
-5.91597322710000e-01 -3.73675712966000e-02 +1.95647361329792e+03 +2.85560938084906e+02 +1.20453233540075e+02 +2.32403386992398e+04
-5.93106937778000e-01 -3.54829497360000e-02 +1.96188532929175e+03 +2.56003870775224e+02 +2.03382926324856e+02 +2.33837379319010e+04
-5.92015033569000e-01 -3.36329757691000e-02 +1.96707161031823e+03 +1.93386174615157e+02 +1.44594000379157e+02 +2.14576108405546e+04
-5.93250849244000e-01 -3.19914382190000e-02 +1.97105929956389e+03 +1.55318407890292e+02 +2.23419002475225e+02 +2.15649169095277e+04
-5.94263869613000e-01 -3.05205565270000e-02 +1.97178534883171e+03 +1.27598916777469e+02 +2.94018414640831e+02 +2.16723159013466e+04
-5.93456615026000e-01 -2.92098076764000e-02 +1.97652884602680e+03 +7.22533591611951e+01 +2.34442464702563e+02 +1.93276272413655e+04
-5.94253949465000e-01 -2.79770907206000e-02 +1.97486873046300e+03 +4.52418647380418e+01 +2.97668440940551e+02 +1.93546006289012e+04
-5.94892084996000e-01 -2.68998167613000e-02 +1.97291584996678e+03 +2.43492843029713e+01 +3.46718900509210e+02 +1.93321869645475e+04
-5.94285140900000e-01 -2.60029764497000e-02 +1.97424092236066e+03 -1.76353446084149e+01 +2.90770303681679e+02 +1.68981261458341e+04
-5.94770857220000e-01 -2.51370376622000e-02 +1.97345961284592e+03 -3.46557680602616e+01 +3.25606727304595e+02 +1.67534978725785e+04
-5.94326135240000e-01 -2.44951795485000e-02 +1.97417847716190e+03 -6.02971982832186e+01 +2.73246985413224e+02 +1.43782179890010e+04
-5.94691736395000e-01 -2.38139210277000e-02 +1.97446697004001e+03 -7.29169213940788e+01 +2.96946999474142e+02 +1.41680266162544e+04
-5.94992442352000e-01 -2.32288054974000e-02 +1.97273969008353e+03 -8.53832078784075e+01 +3.16212279597232e+02 +1.39803938898250e+04
-5.94637335409000e-01 -2.28383116871000e-02 +1.97326580770294e+03 -9.19126645424508e+01 +2.62422851350704e+02 +1.18139523908149e+04
-5.94873273717000e-01 -2.23816231327000e-02 +1.96986936428320e+03 -9.86900929627219e+01 +2.76314510037802e+02 +1.16734723843102e+04
-5.95092761464000e-01 -2.19698787233000e-02 +1.96622689737814e+03 -1.04728266816865e+02 +2.90933650994828e+02 +1.15942396094916e+04
-5.95314136974000e-01 -2.15779285402000e-02 +1.96290013722222e+03 -1.10646667200218e+02 +3.07416987962563e+02 +1.15804165218119e+04
-5.95551579927000e-01 -2.11801416773000e-02 +1.95763553975149e+03 -1.17154872784800e+02 +3.26889928343532e+02 +1.16523934124421e+04
-5.95816622270000e-01 -2.07480972407000e-02 +1.95220332390154e+03 -1.23722640806096e+02 +3.49361814886031e+02 +1.17819508382507e+04
-5.96328491361000e-01 -2.08481240943000e-02 +1.94456574608930e+03 -1.28203059361493e+02 +4.29447349968173e+02 +1.39964515879734e+04
-5.96665302989000e-01 -2.02956128888000e-02 +1.93639057928620e+03 -1.35614902442502e+02 +4.62924277046535e+02 +1.41626647634757e+04
-5.97047463694000e-01 -1.96410654895000e-02 +1.92758612134000e+03 -1.43794138460995e+02 +5.01030891165912e+02 +1.43196331006942e+04
-5.97814416335000e-01 -1.96647746736000e-02 +1.91731477352631e+03 -1.36877657799739e+02 +6.06981431300862e+02 +1.67521134144620e+04
-5.98283951754000e-01 -1.88048209722000e-02 +1.90442103035210e+03 -1.45011271201170e+02 +6.61395044147605e+02 +1.68940497744885e+04
-5.99343934551000e-01 -1.87881819655000e-02 +1.89306298689667e+03 -1.18259903794882e+02 +7.86454805251726e+02 +1.93654696175240e+04
-5.99898413649000e-01 -1.76660788267000e-02 +1.87411743950891e+03 -1.25655712103205e+02 +8.59801930498865e+02 +1.94504242961288e+04
-6.00488538799000e-01 -1.63126016174000e-02 +1.85247894252440e+03 -1.32089024259685e+02 +9.39790910113747e+02 +1.94110361135373e+04
-6.01964794947000e-01 -1.61256443049000e-02 +1.83679395083196e+03 -7.91573830053131e+01 +1.08315965758082e+03 +2.16362331882973e+04
-6.02594840994000e-01 -1.44037824087000e-02 +1.80681352379877e+03 -7.97539996907237e+01 +1.18444770366568e+03 +2.15160627551997e+04
-6.04560720676000e-01 -1.40504734510000e-02 +1.79075886580375e+03 +1.62186449865510e+00 +1.32236738256754e+03 +2.31944795405452e+04
-6.05176707275000e-01 -1.18934273514000e-02 +1.75091054464320e+03 +1.11457707286144e+01 +1.44602945554058e+03 +2.30020003827362e+04
-6.05716920551000e-01 -9.38888231887000e-03 +1.70192041056571e+03 +2.99069771085009e+01 +1.57974130279650e+03 +2.26812436203758e+04
-6.08295151336000e-01 -8.60995850440000e-03 +1.68420471440420e+03 +1.37195697925251e+02 +1.70821363208749e+03 +2.37102908405565e+04
-6.08671501095000e-01 -5.58877611998000e-03 +1.62493099289729e+03 +1.74122654270909e+02 +1.85999275542952e+03 +2.33623800925076e+04
-6.08840936857000e-01 -2.19126044451000e-03 +1.55172047581430e+03 +2.26571649220184e+02 +2.01717646086440e+03 +2.29020357677870e+04
-6.12143935166000e-01 -7.69218168923000e-04 +1.53925851324269e+03 +3.35754599804603e+02 +2.11201672192472e+03 +2.33767656726677e+04
-6.11960842944000e-01 +3.16792231126000e-03 +1.46058524834343e+03 +4.13664354781114e+02 +2.26739022052003e+03 +2.29428121377819e+04
-6.11424230460000e-01 +7.44414128051000e-03 +1.36629805605508e+03 +5.22274835097371e+02 +2.43120928848989e+03 +2.23994598951575e+04
-6.10474203856000e-01 +1.20257988921000e-02 +1.25732480861244e+03 +6.63365921938600e+02 +2.59527715819819e+03 +2.17287243502236e+04
-6.14592439549000e-01 +1.45681848699000e-02 +1.26848718401203e+03 +7.38103146100628e+02 +2.66093433042014e+03 +2.20054495751429e+04
-6.13065954311000e-01 +1.95938685981000e-02 +1.16716130372406e+03 +9.02009308865810e+02 +2.79994753480430e+03 +2.13911054249193e+04
-6.11032432736000e-01 +2.48101749417000e-02 +1.02961659070434e+03 +1.13069903495192e+03 +2.96489810379405e+03 +2.05526502092648e+04
-6.08467734961000e-01 +3.01563338760000e-02 +9.07424714863868e+02 +1.35471211275718e+03 +3.09025886106122e+03 +1.97109452909182e+04
-6.05361946948000e-01 +3.55691184048000e-02 +7.98796454500120e+02 +1.58866725528893e+03 +3.17297485240261e+03 +1.88559597520195e+04
-6.01719454317000e-01 +4.09870723818000e-02 +6.97063606918600e+02 +1.81870790179920e+03 +3.22971274637983e+03 +1.79592955693116e+04
-5.97557770093000e-01 +4.63543165309000e-02 +6.10009551645042e+02 +2.04590482053644e+03 +3.25279367438427e+03 +1.71103691359885e+04
-5.92905243856000e-01 +5.16234654693000e-02 +5.44004145389340e+02 +2.22643421215809e+03 +3.23503754879493e+03 +1.63457395575260e+04
-5.97712614426000e-01 +5.68285544693000e-02 +5.74762513090185e+02 +2.21236062211336e+03 +3.38882990002625e+03 +1.70088522594706e+04
-5.92486448369000e-01 +6.22331366624000e-02 +5.06538206844169e+02 +2.40808318357087e+03 +3.37497193759136e+03 +1.63134524210651e+04
-5.86841001407000e-01 +6.74755108046000e-02 +4.47336263301970e+02 +2.59059488660646e+03 +3.33973330304999e+03 +1.56351803801960e+04
-5.80817879352000e-01 +7.25350302873000e-02 +3.94953209924623e+02 +2.76204232072281e+03 +3.28563824016491e+03 +1.49703703671784e+04
-5.74458643009000e-01 +7.73992384213000e-02 +3.48926446501105e+02 +2.92000160187495e+03 +3.21512460317344e+03 +1.43269319265784e+04
-5.67803083286000e-01 +8.20624771886000e-02 +3.08843482369882e+02 +3.06234051722440e+03 +3.13170405922753e+03 +1.37129099522588e+04
-5.60888202702000e-01 +8.65243239029000e-02 +2.74024438239566e+02 +3.18861070015565e+03 +3.03786001620591e+03 +1.31311494472101e+04
-5.53747819075000e-01 +9.07880986502000e-02 +2.43991215848020e+02 +3.29816935395665e+03 +2.93692509903073e+03 +1.25862326738709e+04
-5.46412622679000e-01 +9.48595868418000e-02 +2.17912492495583e+02 +3.39250717251367e+03 +2.83023641502186e+03 +1.20753977779610e+04
-5.38910505619000e-01 +9.87460311544000e-02 +1.95406996087629e+02 +3.47174542095354e+03 +2.72045676485270e+03 +1.16013286124620e+04
-5.31267014247000e-01 +1.02455386286000e-01 +1.75541872074431e+02 +3.53725627244235e+03 +2.60633357618539e+03 +1.11549632548158e+04
-5.27737537214000e-01 +9.49363821740000e-02 +1.63726747807014e+02 +3.32734523511122e+03 +2.28092776893490e+03 +1.02477991937724e+04
-5.20084128163000e-01 +9.83262269779000e-02 +1.48462085428530e+02 +3.35328933296617e+03 +2.16993317150978e+03 +9.87575825134268e+03
-5.12326279870000e-01 +1.01570210469000e-01 +1.33982975255176e+02 +3.37010176899032e+03 +2.05031383787523e+03 +9.50662617459288e+03
-5.04484751923000e-01 +1.04674771588000e-01 +1.21559340721575e+02 +3.37494485168480e+03 +1.93475135813600e+03 +9.17228947769900e+03
-4.96579729939000e-01 +1.07645773313000e-01 +1.11146340534418e+02 +3.36873201008021e+03 +1.82710501000342e+03 +8.87536584111037e+03
-4.88630992004000e-01 +1.10488526173000e-01 +1.02352913719612e+02 +3.35445422004269e+03 +1.72794486366691e+03 +8.61072880006665e+03
-4.80658025489000e-01 +1.13207838879000e-01 +9.47996375267234e+01 +3.33426588876059e+03 +1.63581733787825e+03 +8.37216572591401e+03
-4.72680106894000e-01 +1.15808082458000e-01 +8.82531900162811e+01 +3.30953219814964e+03 +1.55024481634124e+03 +8.15610546220502e+03
-4.64716355424000e-01 +1.18293259031000e-01 +8.25314149098567e+01 +3.28134048107307e+03 +1.47066753108117e+03 +7.95949571202323e+03
-4.56785768959000e-01 +1.20667069850000e-01 +7.74985787556086e+01 +3.25050663021970e+03 +1.39661635318032e+03 +7.77993323229550e+03
-4.48907249167000e-01 +1.22932979480000e-01 +7.30476641894280e+01 +3.21778136498495e+03 +1.32779058393592e+03 +7.61547420655374e+03
-4.41099620803000e-01 +1.25094274379000e-01 +6.90929303790184e+01 +3.18373389329756e+03 +1.26376442562319e+03 +7.46443715250850e+03
-4.33381648685000e-01 +1.27154114758000e-01 +6.55651662746377e+01 +3.14894164553745e+03 +1.20429189274468e+03 +7.32543887820336e+03
-4.25772054377000e-01 +1.29115578531000e-01 +6.24079807555208e+01 +3.11389907870315e+03 +1.14912323460529e+03 +7.19738916257502e+03
-4.18289532968000e-01 +1.30981695502000e-01 +5.95740290324301e+01 +3.07902496004898e+03 +1.09793969873696e+03 +7.07933490765117e+03
-4.10952768538000e-01 +1.32755468681000e-01 +5.70225282256984e+01 +3.04478450690372e+03 +1.05059477851472e+03 +6.97058963203159e+03
-4.03780444760000e-01 +1.34439877887000e-01 +5.47229501757678e+01 +3.01151128830754e+03 +1.00674668123314e+03 +6.87071485540969e+03
-3.96791244736000e-01 +1.36037858730000e-01 +5.26472083616040e+01 +2.97977714421580e+03 +9.66482489689388e+02 +6.77984385060592e+03
-3.90003831802000e-01 +1.37552248131000e-01 +5.07711348515428e+01 +2.95080447997198e+03 +9.30770472588805e+02 +6.70012164569835e+03
-3.83436801125000e-01 +1.38985686447000e-01 +4.96348087904982e+01 +2.92679009617535e+03 +9.08422894657320e+02 +6.63904844185803e+03
-3.81288662424000e-01 +1.32620990700000e-01 +4.71289576615224e+01 +2.38332068079723e+03 +6.83421559636699e+02 +5.94478539203277e+03
-3.74892791000000e-01 +1.33946928781000e-01 +4.56759336216179e+01 +2.35210499905776e+03 +6.49758719272827e+02 +5.88014425686325e+03
-3.68742022909000e-01 +1.35196473685000e-01 +4.45787294057251e+01 +2.31933598383974e+03 +6.22251397240554e+02 +5.82895092793869e+03
-3.62854204176000e-01 +1.36371838542000e-01 +4.38075981287154e+01 +2.28374651679284e+03 +5.99062988107365e+02 +5.78953259419469e+03
-3.57246997244000e-01 +1.37474660824000e-01 +4.32805817839401e+01 +2.24458044651023e+03 +5.82707107557513e+02 +5.76254222940798e+03
-3.51937629039000e-01 +1.38505663514000e-01 +4.31500002077150e+01 +2.19942224251592e+03 +5.71909918816846e+02 +5.75565287555266e+03
-3.46942487622000e-01 +1.39464312695000e-01 +4.37511388872126e+01 +2.14668845933477e+03 +5.69022940538301e+02 +5.77264216820583e+03
-3.45090891514000e-01 +1.34834839010000e-01 +4.32990015199195e+01 +1.63261376276257e+03 +4.16784066209804e+02 +5.08884200295378e+03
-3.40323278660000e-01 +1.35710415355000e-01 +4.51888362629933e+01 +1.54560297655052e+03 +4.10518533060942e+02 +5.12270657098366e+03
-3.35891669618000e-01 +1.36515955054000e-01 +4.78069525616191e+01 +1.44540327841684e+03 +4.03573900630460e+02 +5.16686434551706e+03
-3.31809446988000e-01 +1.37248657874000e-01 +5.09409237278838e+01 +1.33886869490400e+03 +3.96142465471553e+02 +5.21205388059888e+03
-3.28086325191000e-01 +1.37904668367000e-01 +5.42522032199769e+01 +1.23572504344127e+03 +3.92014524977947e+02 +5.25027344295028e+03
-3.26485583303000e-01 +1.34603663884000e-01 +5.52017277547828e+01 +8.31517116969352e+02 +2.54126105016673e+02 +4.49893264742752e+03
-3.23032934234000e-01 +1.35193311414000e-01 +5.89682985063695e+01 +7.37264675186263e+02 +2.36308938626791e+02 +4.49510839295925e+03
-3.19949781589000e-01 +1.35706923670000e-01 +6.23381213725794e+01 +6.55096277308346e+02 +2.20395520093298e+02 +4.48152180842128e+03
-3.17231499003000e-01 +1.36142819124000e-01 +6.52267218697884e+01 +5.85872547514883e+02 +2.08997439881423e+02 +4.45982227353621e+03
-3.15888341088000e-01 +1.33821903367000e-01 +6.53839557389551e+01 +3.46496235152159e+02 +1.18296263100885e+02 +3.77062873767708e+03
-3.13463785653000e-01 +1.34202011727000e-01 +6.83104902883550e+01 +2.99762459629926e+02 +1.02649518052885e+02 +3.73489999663703e+03
-3.11386045380000e-01 +1.34511385018000e-01 +7.04299899320836e+01 +2.62435214406323e+02 +9.26736344833997e+01 +3.69539832293219e+03
-3.10320236451000e-01 +1.32881430417000e-01 +7.04678779739460e+01 +1.34952332650289e+02 +4.39913122903177e+01 +3.15014891653333e+03
-3.08534656723000e-01 +1.33142736960000e-01 +7.26258522855119e+01 +1.13508241162886e+02 +3.54563258505699e+01 +3.10966205397126e+03
-3.07051085334000e-01 +1.33347055113000e-01 +7.40849856428148e+01 +9.66666070129478e+01 +3.00935804523860e+01 +3.06533447669510e+03
-3.06223760513000e-01 +1.32205435339000e-01 +7.41432892162092e+01 +3.72436047758737e+01 +8.28252778980296e+00 +2.65747847712997e+03
-3.05002752904000e-01 +1.32372521064000e-01 +7.54901588378666e+01 +2.92193865477834e+01 +5.77532607645790e+00 +2.61653882653964e+03
-3.04379883192000e-01 +1.31564216975000e-01 +7.56359185663728e+01 +2.86010700968416e+00 -3.13267955657311e+00 +2.31613915817549e+03
-3.03399761519000e-01 +1.31698607114000e-01 +7.68221408683090e+01 -3.35412644707705e-01 -4.04524481530875e+00 +2.28104500983207e+03
-3.02618927259000e-01 +1.31804548315000e-01 +7.75296380021721e+01 -2.56901386595845e+00 -4.50972784312989e+00 +2.24734332838663e+03
-3.02167691936000e-01 +1.31232239994000e-01 +7.75875992353742e+01 -1.07713119734541e+01 -6.83107271837220e+00 +2.03757788452598e+03
-3.01563549859000e-01 +1.31319423279000e-01 +7.82278031104400e+01 -1.11619970626131e+01 -6.80654108500902e+00 +2.01187773384990e+03
-3.01238317572000e-01 +1.30908945553000e-01 +7.82854522970428e+01 -1.25198954151984e+01 -6.57328279559372e+00 +1.86503550458985e+03
-3.00776365978000e-01 +1.30982838630000e-01 +7.87779529865870e+01 -1.21331286790928e+01 -6.46988881878942e+00 +1.84703756586675e+03
-3.00546888641000e-01 +1.30685162508000e-01 +7.88248697954679e+01 -1.08992653148234e+01 -5.46120229834799e+00 +1.74572839064682e+03
-3.00194294142000e-01 +1.30751541136000e-01 +7.92145013484899e+01 -1.03015008674543e+01 -5.36692734941228e+00 +1.73425492245944e+03
-2.99905258343000e-01 +1.30825176945000e-01 +7.94298699037506e+01 -9.75332209427159e+00 -5.31717098160023e+00 +1.72666707299365e+03
-2.99763476985000e-01 +1.30597104359000e-01 +7.94408110307688e+01 -7.89514486670957e+00 -4.17143279050531e+00 +1.65897813169249e+03
-2.99530257632000e-01 +1.30677179037000e-01 +7.96539743276306e+01 -7.48056053671952e+00 -4.19087274046366e+00 +1.65636348373090e+03
-2.99315896945000e-01 +1.30784953912000e-01 +7.97998349885191e+01 -7.16768120587097e+00 -4.34736090642206e+00 +1.65718418970849e+03
-2.99100672510000e-01 +1.30935353314000e-01 +7.99533815268280e+01 -6.95419849960412e+00 -4.62620226643472e+00 +1.66169218145802e+03
-2.99193112912000e-01 +1.31202610861000e-01 +7.99814093406706e+01 -8.67152882259389e+00 -5.91534706262548e+00 +1.73053218559732e+03
-2.98940264037000e-01 +1.31427640345000e-01 +8.02072467628998e+01 -8.33507540535516e+00 -6.26703650467428e+00 +1.74161502343022e+03