 TITLE="parade results"
 VARIABLES="wavelength [A]"
 "emission coefficient [W/m3/str/m]"
 "absorption coefficient [1/m]"
 "conditional distribution [-]"
 ZONE I=         1000 , F=POINT
  3.4000000000E+03  1.2032092109E+07  1.9346435870E-07  0.0000000000E+00
  3.4007124895E+03  6.8554867808E+06  1.1021087448E-07  2.4786695457E-07
  3.4014252777E+03  6.7550959588E+06  1.0856141851E-07  4.3493502607E-07
  3.4021383648E+03  7.6647151759E+06  1.2316193005E-07  6.3320848236E-07
  3.4028517509E+03  2.3876303574E+05  3.8352718259E-09  6.8909614749E-07
  3.4035654362E+03  1.5867923514E+07  2.5487084979E-07  9.1390820026E-07
  3.4042794210E+03  5.6705646355E+06  9.1048061836E-08  1.2133083634E-06
  3.4049937054E+03  1.8819157111E+07  3.0213012960E-07  1.5565194771E-06
  3.4057082896E+03  3.4506682796E+06  5.5380042995E-08  1.8550566182E-06
  3.4064231738E+03  2.3869981963E+07  3.8304168130E-07  2.2402611652E-06
  3.4071383582E+03  9.8471711256E+05  1.5796761693E-08  2.5787353093E-06
  3.4078538429E+03  2.5170420799E+07  4.0372993125E-07  2.9370658237E-06
  3.4085696282E+03  4.4338832403E+06  7.1112481840E-08  3.3561562025E-06
  3.4092857143E+03  1.9533455104E+07  3.1318077856E-07  3.6692717334E-06
  3.4100021013E+03  1.4263826794E+07  2.2866485665E-07  4.1583692678E-06
  3.4107187894E+03  1.0059691452E+07  1.6123351563E-07  4.4442896155E-06
  3.4114357789E+03  2.7671347089E+07  4.4339761379E-07  5.0301724975E-06
  3.4121530698E+03  1.7394724232E+07  2.7866284877E-07  5.6584088368E-06
  3.4128706625E+03  3.0760203590E+07  4.9265975459E-07  6.3260002055E-06
  3.4135885570E+03  1.9359492797E+07  3.1000418224E-07  7.0181616969E-06
  3.4143067536E+03  3.4164090744E+07  5.4691945295E-07  7.7607890853E-06
  3.4150252525E+03  2.1528185298E+07  3.4458286922E-07  8.5305798071E-06
  3.4157440539E+03  3.7911527031E+07  6.0662626687E-07  9.3559665113E-06
  3.4164631579E+03  2.3921227244E+07  3.8272165830E-07  1.0231219671E-05
  3.4171825648E+03  2.4853003833E+07  3.9750102960E-07  1.0907812598E-05
  3.4179022746E+03  4.3732836982E+07  6.9940299077E-07  1.1947219026E-05
  3.4186222878E+03  2.4727147822E+07  3.9531124231E-07  1.2888841880E-05
  3.4193426043E+03  5.1292779418E+07  8.1994004458E-07  1.3950369840E-05
  3.4200632244E+03  2.7366387102E+07  4.3730635920E-07  1.5040068168E-05
  3.4207841484E+03  5.6824492395E+07  9.0796206048E-07  1.6212344479E-05
  3.4215053763E+03  3.1194196288E+07  4.9824802867E-07  1.7434956163E-05
  3.4222269085E+03  6.1968295308E+07  9.8971125941E-07  1.8755972399E-05
  3.4229487450E+03  1.4840553617E+07  2.3694073379E-07  1.9768643017E-05
  3.4236708861E+03  9.4340213775E+07  1.5060793531E-06  2.1325082121E-05
  3.4243933319E+03  1.5958728733E+07  2.5468945117E-07  2.2859607748E-05
  3.4251160827E+03  9.7313891514E+07  1.5528765381E-06  2.4426501087E-05
  3.4258391387E+03  2.8897072244E+07  4.6100302344E-07  2.6226432585E-05
  3.4265625000E+03  7.5708639559E+07  1.2076448030E-06  2.7619524507E-05
  3.4272861668E+03  6.3972754445E+07  1.0201788382E-06  2.9605302395E-05
  3.4280101394E+03  7.9306941970E+07  1.2644893283E-06  3.1601903025E-05
  3.4287344179E+03  7.0629129308E+07  1.1258386056E-06  3.3694301997E-05
  3.4294590025E+03  8.7352526697E+07  1.3921667870E-06  3.5902200844E-05
  3.4301838935E+03  7.8128265967E+07  1.2448361230E-06  3.8214027554E-05
  3.4309090909E+03  9.5917089146E+07  1.5280036657E-06  4.0643881920E-05
  3.4316345951E+03  9.0043584589E+07  1.4340598889E-06  4.3247948007E-05
  3.4323604061E+03  1.0565289624E+08  1.6823634071E-06  4.5997541536E-05
  3.4330865242E+03  1.1666224032E+08  1.8571582679E-06  4.9159916898E-05
  3.4338129496E+03  1.0638032528E+08  1.6931795136E-06  5.2260162670E-05
  3.4345396825E+03  1.3795763612E+08  2.1951715330E-06  5.5781854534E-05
  3.4352667231E+03  1.2767613546E+08  2.0311883183E-06  5.9620632773E-05
  3.4359940716E+03  6.0944847674E+07  9.6930844877E-07  6.1789015291E-05
  3.4367217281E+03  1.9839251131E+08  3.1550000579E-06  6.5496477053E-05
  3.4374496929E+03  7.2727769453E+07  1.1562396058E-06  6.9293722293E-05
  3.4381779661E+03  2.1763782075E+08  3.4595856844E-06  7.3361916121E-05
  3.4389065480E+03  9.9773191805E+07  1.5855582057E-06  7.7852016812E-05
  3.4396354387E+03  2.1855686183E+08  3.4726913821E-06  8.2314581797E-05
  3.4403646385E+03  1.1031889779E+08  1.7524499206E-06  8.6918206663E-05
  3.4410941476E+03  2.4690929296E+08  3.9215135373E-06  9.1972736965E-05
  3.4418239661E+03  1.1329565520E+08  1.7990041730E-06  9.7018102956E-05
  3.4425540942E+03  2.7032857863E+08  4.2916632988E-06  1.0243304436E-04
  3.4432845321E+03  1.2451709574E+08  1.9764033745E-06  1.0797822722E-04
  3.4440152801E+03  2.9551837353E+08  4.6896056341E-06  1.1382256046E-04
  3.4447463384E+03  2.1270164207E+08  3.3746655039E-06  1.2111026398E-04
  3.4454777070E+03  2.7873375965E+08  4.4212088612E-06  1.2803661627E-04
  3.4462093863E+03  1.9932401333E+08  3.1611239810E-06  1.3473586137E-04
  3.4469413764E+03  3.0417097003E+08  4.8226699101E-06  1.4185068088E-04
  3.4476736775E+03  2.1763572966E+08  3.4501908020E-06  1.4930521637E-04
  3.4484062898E+03  2.4924166228E+08  3.9501698441E-06  1.5571571507E-04
  3.4491392136E+03  3.1973200547E+08  5.0668435734E-06  1.6412285385E-04
  3.4498724490E+03  2.3474058048E+08  3.7188923437E-06  1.7181262079E-04
  3.4506059962E+03  4.3249236628E+08  6.8509328648E-06  1.8141282623E-04
  3.4513398554E+03  2.0939386970E+08  3.3159053191E-06  1.9040336322E-04
  3.4520740268E+03  4.8602454212E+08  7.6958119638E-06  2.0002688099E-04
  3.4528085106E+03  4.5019605702E+08  7.1260816995E-06  2.1357460087E-04
  3.4535433071E+03  2.9211533504E+08  4.6234540385E-06  2.2314389552E-04
  3.4542784163E+03  5.3580622581E+08  8.4778386909E-06  2.3500816148E-04
  3.4550138386E+03  2.6838335700E+08  4.2460860407E-06  2.4622013528E-04
  3.4557495741E+03  6.7510208325E+08  1.0677645660E-05  2.5984488867E-04
  3.4564856230E+03  2.0425247938E+08  3.2300796848E-06  2.7217688598E-04
  3.4572219855E+03  7.3735667730E+08  1.1657828431E-05  2.8559563154E-04
  3.4579586618E+03  2.2428279846E+08  3.5453379031E-06  2.9921554552E-04
  3.4586956522E+03  7.9219333051E+08  1.2520042109E-05  3.1337900114E-04
  3.4594329567E+03  5.1621850249E+08  8.1563257551E-06  3.3256320050E-04
  3.4601705757E+03  5.9302995135E+08  9.3685294409E-06  3.4804230986E-04
  3.4609085093E+03  5.6812522828E+08  8.9730092227E-06  3.6458684736E-04
  3.4616467577E+03  6.2626315462E+08  9.8896969158E-06  3.8156347523E-04
  3.4623853211E+03  6.2305153445E+08  9.8367627536E-06  3.9935536546E-04
  3.4631241997E+03  7.1074477246E+08  1.1219394692E-05  4.1797210856E-04
  3.4638633938E+03  9.6130551524E+08  1.5170749691E-05  4.4281937963E-04
  3.4646029035E+03  7.8454919239E+08  1.2378630121E-05  4.6812332011E-04
  3.4653427290E+03  6.9124661606E+08  1.0904210168E-05  4.8854119296E-04
  3.4660828706E+03  8.6527186655E+08  1.3647230150E-05  5.1074430331E-04
  3.4668233283E+03  7.8114174328E+08  1.2317456032E-05  5.3434243179E-04
  3.4675641026E+03  8.7898941718E+08  1.3858457821E-05  5.5776163837E-04
  3.4683051934E+03  1.0418826183E+09  1.6422431825E-05  5.8630148330E-04
  3.4690466011E+03  7.4668983217E+08  1.1768188538E-05  6.1066539990E-04
  3.4697883258E+03  1.9226429119E+09  3.0292590434E-05  6.5511815377E-04
  3.4705303678E+03  4.6474574692E+08  7.3204552316E-06  6.8931883444E-04
  3.4712727273E+03  1.6084414058E+09  2.5332093527E-05  7.1821229364E-04
  3.4720154044E+03  8.0513067039E+08  1.2677394031E-05  7.5330511877E-04
  3.4727583993E+03  1.5071135093E+09  2.3726821157E-05  7.8633975704E-04
  3.4735017123E+03  7.7987261063E+08  1.2275275555E-05  8.1892464755E-04
  3.4742453436E+03  1.6458141609E+09  2.5900832548E-05  8.5333968065E-04
  3.4749892934E+03  1.2245850244E+09  1.9267672285E-05  8.9511189176E-04
  3.4757335618E+03  1.5930806103E+09  2.5060777322E-05  9.3550428089E-04
  3.4764781491E+03  1.2086776731E+09  1.9010339809E-05  9.7493015487E-04
  3.4772230555E+03  2.2471393595E+09  3.5335428463E-05  1.0309291766E-03
  3.4779682812E+03  6.2720497444E+08  9.8610699669E-06  1.0705690367E-03
  3.4787138264E+03  3.0580818290E+09  4.8068636716E-05  1.1238675918E-03
  3.4794596913E+03  1.1685186001E+09  1.8362194849E-05  1.1864088540E-03
  3.4802058760E+03  2.1390773414E+09  3.3610220686E-05  1.2328160853E-03
  3.4809523810E+03  1.2342535953E+09  1.9388326933E-05  1.2811521624E-03
  3.4816992062E+03  2.3909613828E+09  3.7554576045E-05  1.3311376255E-03
  3.4824463519E+03  3.3354985539E+09  5.2374357866E-05  1.4222450442E-03
  3.4831938184E+03  6.9339080295E+08  1.0886407948E-05  1.4668871509E-03
  3.4839416058E+03  3.6427997677E+09  5.7178926807E-05  1.5298518702E-03
  3.4846897144E+03  6.2927390442E+08  9.8757015590E-06  1.5908971339E-03
  3.4854381443E+03  4.0674174141E+09  6.3820826412E-05  1.6570954746E-03
  3.4861868958E+03  2.3650297314E+09  3.7098507195E-05  1.7539518430E-03
  3.4869359691E+03  2.4931568999E+09  3.9104188834E-05  1.8224308995E-03
  3.4876853643E+03  3.3248327868E+09  5.2135626741E-05  1.9126741672E-03
  3.4884350817E+03  1.5923003806E+09  2.4964944243E-05  1.9816583331E-03
  3.4891851215E+03  4.1700587076E+09  6.5366914858E-05  2.0655901736E-03
  3.4899354839E+03  1.9417910351E+09  3.0431537660E-05  2.1552020637E-03
  3.4906861691E+03  3.5440926471E+09  5.5535712229E-05  2.2306932948E-03
  3.4914371773E+03  4.5618894112E+09  7.1465364399E-05  2.3574882503E-03
  3.4921885087E+03  1.6788502908E+09  2.6296926683E-05  2.4311527770E-03
  3.4929401636E+03  5.7352363321E+09  8.9815217462E-05  2.5383239687E-03
  3.4936921421E+03  3.0843027799E+09  4.8288000716E-05  2.6706714478E-03
  3.4944444444E+03  3.4501068343E+09  5.4009741909E-05  2.7621969180E-03
  3.4951970709E+03  5.1670776755E+09  8.0868405822E-05  2.8946386400E-03
  3.4959500215E+03  3.8297153975E+09  5.9926157037E-05  3.0256334540E-03
  3.4967032967E+03  5.2412288726E+09  8.1996516998E-05  3.1581490719E-03
  3.4974568966E+03  3.2731371891E+09  5.1197389670E-05  3.2793996360E-03
  3.4982108213E+03  6.7316316048E+09  1.0527323230E-04  3.4277949552E-03
  3.4989650712E+03  2.3222229462E+09  3.6309588041E-05  3.5586489296E-03
  3.4997196463E+03  6.4669366711E+09  1.0109934915E-04  3.6816419236E-03
  3.5004745470E+03  6.0854431312E+09  9.5110208082E-05  3.8661720158E-03
  3.5012297735E+03  4.9558597637E+09  7.7445642493E-05  4.0192416901E-03
  3.5019853259E+03  7.0089638646E+09  1.0950435127E-04  4.1961622296E-03
  3.5027412044E+03  3.7290257744E+09  5.8248930898E-05  4.3512143122E-03
  3.5034974093E+03  6.9858892382E+09  1.0910699786E-04  4.5037088419E-03
  3.5042539408E+03  6.7841289464E+09  1.0593219085E-04  4.7039243377E-03
  3.5050107991E+03  6.8533730235E+09  1.0699439576E-04  4.9028228652E-03
  3.5057679844E+03  6.7569649220E+09  1.0546739554E-04  5.1022871777E-03
  3.5065254970E+03  6.2111436389E+09  9.6933100452E-05  5.2917085188E-03
  3.5072833369E+03  9.6169378538E+09  1.5005107201E-04  5.5419926945E-03
  3.5080415045E+03  5.2229125992E+09  8.1476429299E-05  5.7581465965E-03
  3.5088000000E+03  9.2879124333E+09  1.4486776758E-04  5.9649219486E-03
  3.5095588235E+03  9.3650138556E+09  1.4603364127E-04  6.2378512806E-03
  3.5103179753E+03  3.6462992778E+09  5.6854133118E-05  6.3908361350E-03
  3.5110774556E+03  1.3297213834E+10  2.0728578012E-04  6.6360840119E-03
  3.5118372647E+03  9.9315087279E+09  1.5477871548E-04  6.9941075987E-03
  3.5125974026E+03  5.0891048339E+09  7.9302332437E-05  7.1869588987E-03
  3.5133578697E+03  1.1431334193E+10  1.7809955703E-04  7.4192193932E-03
  3.5141186661E+03  1.4760023143E+10  2.2990386406E-04  7.8342810215E-03
  3.5148797921E+03  5.4710953618E+09  8.5201140208E-05  8.0951201094E-03
  3.5156412478E+03  1.0938498049E+10  1.7032427474E-04  8.3184523247E-03
  3.5164030336E+03  1.6033610237E+10  2.4960127000E-04  8.7516541957E-03
  3.5171651495E+03  6.0053961244E+09  9.3468784475E-05  9.0725680481E-03
  3.5179275959E+03  1.3529968428E+10  2.1055734526E-04  9.3456055850E-03
  3.5186903729E+03  1.5057083780E+10  2.3426708529E-04  9.7660701704E-03
  3.5194534808E+03  7.4106909535E+09  1.1528045987E-04  1.0058874232E-02
  3.5202169197E+03  1.5183981461E+10  2.3616702430E-04  1.0381091781E-02
  3.5209806900E+03  1.6006124189E+10  2.4889451513E-04  1.0840439975E-02
  3.5217447917E+03  1.1495455992E+10  1.7872282662E-04  1.1231293231E-02
  3.5225092251E+03  1.2829765004E+10  1.9943719684E-04  1.1575276289E-02
  3.5232739904E+03  2.0185143861E+10  3.1370615754E-04  1.2104626592E-02
  3.5240390879E+03  1.0242569188E+10  1.5915521249E-04  1.2555754340E-02
  3.5248045178E+03  1.5797713685E+10  2.4543563688E-04  1.2928702956E-02
  3.5255702803E+03  1.5105819936E+10  2.3464189248E-04  1.3379503107E-02
  3.5263363755E+03  1.6655999196E+10  2.5868083723E-04  1.3839742350E-02
  3.5271028037E+03  2.3239728659E+10  3.6084804676E-04  1.4472862197E-02
  3.5278695652E+03  1.2147248707E+10  1.8857361626E-04  1.4999608759E-02
  3.5286366601E+03  1.5862572715E+10  2.4622171758E-04  1.5392705569E-02
  3.5294040887E+03  2.1972645037E+10  3.4099732561E-04  1.5970675560E-02
  3.5301718512E+03  2.0746826814E+10  3.2190299992E-04  1.6607154910E-02
  3.5309399478E+03  1.7879845188E+10  2.7737026904E-04  1.7168910589E-02
  3.5317083787E+03  1.9201728320E+10  2.9782907045E-04  1.7716603881E-02
  3.5324771441E+03  1.7751163433E+10  2.7528269768E-04  1.8267808290E-02
  3.5332462443E+03  2.6598502858E+10  4.1240681883E-04  1.8973442459E-02
  3.5340156794E+03  1.6047926349E+10  2.4877545243E-04  1.9601621440E-02
  3.5347854498E+03  2.8593139026E+10  4.4317159718E-04  2.0260041759E-02
  3.5355555556E+03  2.1412992085E+10  3.3182018552E-04  2.1012943152E-02
  3.5363259969E+03  2.5621936609E+10  3.9696687743E-04  2.1710077605E-02
  3.5370967742E+03  1.9737310063E+10  3.0574040197E-04  2.2390111998E-02
  3.5378678875E+03  1.9200785061E+10  2.9739527188E-04  2.2969081054E-02
  3.5386393371E+03  3.1507383520E+10  4.8790939986E-04  2.3752435200E-02
  3.5394111232E+03  3.2095392348E+10  4.9690302278E-04  2.4698967592E-02
  3.5401832461E+03  2.5989777264E+10  4.0228899255E-04  2.5563328544E-02
  3.5409557059E+03  2.0057292066E+10  3.1041921966E-04  2.6218205857E-02
  3.5417285028E+03  2.6613857705E+10  4.1182958983E-04  2.6905381608E-02
  3.5425016372E+03  2.7351704721E+10  4.2317422868E-04  2.7709281214E-02
  3.5432751092E+03  2.8337713437E+10  4.3835022595E-04  2.8527120620E-02
  3.5440489190E+03  3.4451518191E+10  5.3282066673E-04  2.9497702675E-02
  3.5448230668E+03  2.7004825867E+10  4.1757532415E-04  3.0412334524E-02
  3.5455975530E+03  3.5346983900E+10  5.4646781111E-04  3.1339643026E-02
  3.5463723776E+03  3.0985239052E+10  4.7893989186E-04  3.2338355725E-02
  3.5471475410E+03  3.3172008133E+10  5.1265148948E-04  3.3291669442E-02
  3.5479230433E+03  3.3341254637E+10  5.1516994142E-04  3.4286281670E-02
  3.5486988848E+03  2.6808567530E+10  4.1415940138E-04  3.5168514721E-02
  3.5494750656E+03  2.7343178383E+10  4.2236103283E-04  3.5972853095E-02
  3.5502515861E+03  3.0338394469E+10  4.6855764434E-04  3.6827115691E-02
  3.5510284464E+03  3.7110879874E+10  5.7305038163E-04  3.7853974606E-02
  3.5518056467E+03  3.7279837333E+10  5.7554824364E-04  3.8969453768E-02
  3.5525831874E+03  3.7194487675E+10  5.7412121604E-04  4.0086128935E-02
  3.5533610685E+03  3.7292172800E+10  5.7552099704E-04  4.1203574036E-02
  3.5541392904E+03  3.7058381472E+10  5.7180695036E-04  4.2319695534E-02
  3.5549178532E+03  2.9139600036E+10  4.4954885147E-04  4.3269960826E-02
  3.5556967572E+03  3.8629889479E+10  5.9586223422E-04  4.4277938097E-02
  3.5564760026E+03  3.8584037796E+10  5.9504459616E-04  4.5438136700E-02
  3.5572555897E+03  3.6545089164E+10  5.6349795412E-04  4.6562777817E-02
  3.5580355185E+03  3.6393114538E+10  5.6105690270E-04  4.7659838983E-02
  3.5588157895E+03  3.6182249176E+10  5.5770972273E-04  4.8751774787E-02
  3.5595964027E+03  3.9855749824E+10  6.1422269176E-04  4.9912742836E-02
  3.5603773585E+03  3.6975814847E+10  5.6973680847E-04  5.1072986444E-02
  3.5611586570E+03  3.8058861949E+10  5.8632154304E-04  5.2198432682E-02
  3.5619402985E+03  3.1020618759E+10  4.7781428232E-04  5.3207190439E-02
  3.5627222832E+03  3.6888350411E+10  5.6810605118E-04  5.4227903477E-02
  3.5635046113E+03  3.2433129794E+10  4.9940976917E-04  5.5277433430E-02
  3.5642872831E+03  3.5285098568E+10  5.4323449801E-04  5.6293697007E-02
  3.5650702988E+03  3.5380965061E+10  5.4461891224E-04  5.7360646342E-02
  3.5658536585E+03  3.3491005773E+10  5.1543813196E-04  5.8405180952E-02
  3.5666373626E+03  2.9924250307E+10  4.6047192659E-04  5.9323273293E-02
  3.5674214113E+03  4.2335964188E+10  6.5133870388E-04  6.0475483892E-02
  3.5682058047E+03  3.1022656384E+10  4.7719403935E-04  6.1598039566E-02
  3.5689905432E+03  3.3132097638E+10  5.0955291668E-04  6.2587127065E-02
  3.5697756269E+03  2.7974097034E+10  4.3015104724E-04  6.3511760215E-02
  3.5705610561E+03  3.0416610294E+10  4.6763038192E-04  6.4395270483E-02
  3.5713468310E+03  2.5898811116E+10  3.9810330175E-04  6.5258612189E-02
  3.5721329518E+03  2.0366676919E+10  3.1301845199E-04  6.5933782942E-02
  3.5729194188E+03  2.5184286888E+10  3.8699846438E-04  6.6617804686E-02
  3.5737062321E+03  2.4995047852E+10  3.8402241828E-04  6.7379110362E-02
  3.5744933921E+03  2.8414374414E+10  4.3647993332E-04  6.8197909591E-02
  3.5752808989E+03  2.8618992114E+10  4.3954934831E-04  6.9063965188E-02
  3.5760687528E+03  3.1520147051E+10  4.8402624189E-04  6.9961683943E-02
  3.5768569539E+03  4.0706765768E+10  6.2498904746E-04  7.1071664512E-02
  3.5776455026E+03  4.5061158400E+10  6.9172484464E-04  7.2366057473E-02
  3.5784343991E+03  5.3256266138E+10  8.1738930000E-04  7.3856595490E-02
  3.5792236436E+03  6.3449643087E+10  9.7367543858E-04  7.5626972861E-02
  3.5800132363E+03  7.5904176888E+10  1.1646041312E-03  7.7739446038E-02
  3.5808031774E+03  9.2003688512E+10  1.4113847035E-03  8.0261372106E-02
  3.5815934672E+03  1.2216199213E+11  1.8737136976E-03  8.3482568721E-02
  3.5823841060E+03  1.6904513107E+11  2.5923644036E-03  8.7734985512E-02
  3.5831750938E+03  2.8965910924E+11  4.4413079262E-03  9.5565508719E-02
  3.5839664311E+03  8.1922962900E+10  1.2558980961E-03  1.0134309777E-01
  3.5847581180E+03  1.1807515222E+11  1.8098095757E-03  1.0434222875E-01
  3.5855501547E+03  1.7547120956E+11  2.6891257562E-03  1.0905989064E-01
  3.5863425414E+03  1.4070323320E+11  2.1559966253E-03  1.1410207468E-01
  3.5871352785E+03  3.2129188137E+10  4.9221943854E-04  1.1645458686E-01
  3.5879283661E+03  3.7170968038E+10  5.6936631708E-04  1.1750514735E-01
  3.5887218045E+03  4.5836714572E+10  7.0198987292E-04  1.1875727092E-01
  3.5895155939E+03  6.1510381975E+10  9.4187755021E-04  1.2036351059E-01
  3.5903097345E+03  9.1640514136E+10  1.4030095635E-03  1.2254664089E-01
  3.5911042266E+03  1.8532606382E+11  2.8368723483E-03  1.2749066250E-01
  3.5918990704E+03  4.3225876829E+09  6.6158224480E-05  1.3051465984E-01
  3.5926942661E+03  6.2834244645E+09  9.6152465665E-05  1.3068372123E-01
  3.5934898140E+03  5.7250920959E+09  8.7593488730E-05  1.3086971379E-01
  3.5942857143E+03  6.2950260194E+09  9.6297904147E-05  1.3105088953E-01
  3.5950819672E+03  8.3146120518E+09  1.2717069311E-04  1.3128317724E-01
  3.5958785730E+03  7.2163953209E+09  1.1035551448E-04  1.3152208094E-01
  3.5966755319E+03  8.9738597172E+09  1.3721072219E-04  1.3176587800E-01
  3.5974728442E+03  1.1783428959E+10  1.8013830560E-04  1.3209152044E-01
  3.5982705100E+03  1.2049157591E+10  1.8416996400E-04  1.3245808849E-01
  3.5990685296E+03  1.4940126306E+10  2.2832286212E-04  1.3285709912E-01
  3.5998669033E+03  2.4190271042E+10  3.6962629957E-04  1.3345539032E-01
  3.6006656312E+03  3.5045828186E+10  5.3542386712E-04  1.3448136746E-01
  3.6014647137E+03  1.5990891321E+09  2.4425761301E-05  1.3495924440E-01
  3.6022641509E+03  1.9437838505E+09  2.9686674791E-05  1.3501317714E-01
  3.6030639432E+03  2.5538978822E+09  3.8998639778E-05  1.3508218052E-01
  3.6038640906E+03  3.3043212462E+09  5.0449324737E-05  1.3517583795E-01
  3.6046645935E+03  2.7818061589E+09  4.2464485163E-05  1.3527037236E-01
  3.6054654521E+03  3.0737057893E+09  4.6913554152E-05  1.3535854524E-01
  3.6062666667E+03  4.3006685714E+09  6.5630060318E-05  1.3547738413E-01
  3.6070682374E+03  3.6202470270E+09  5.5237773777E-05  1.3560000965E-01
  3.6078701645E+03  4.6954626235E+09  7.1632635093E-05  1.3572600377E-01
  3.6086724483E+03  6.0271685232E+09  9.1933061053E-05  1.3589760754E-01
  3.6094750890E+03  5.1377364419E+09  7.8353892225E-05  1.3606926611E-01
  3.6102780868E+03  7.3556253604E+09  1.1216043481E-04  1.3626138249E-01
  3.6110814419E+03  7.4939120377E+09  1.1425060572E-04  1.3649141168E-01
  3.6118851547E+03  9.0275133925E+09  1.3761004881E-04  1.3674491212E-01
  3.6126892253E+03  1.1546322889E+10  1.7597747738E-04  1.3705462145E-01
  3.6134936540E+03  1.7658811667E+10  2.6909403082E-04  1.3751963006E-01
  3.6142984410E+03  1.9130306610E+10  2.9148505872E-04  1.3809053366E-01
  3.6151035865E+03  1.2453496635E+09  1.8971587424E-05  1.3836109644E-01
  3.6159090909E+03  1.0544491153E+09  1.6061052636E-05  1.3839535114E-01
  3.6167149543E+03  1.4301624379E+09  2.1780212068E-05  1.3843426659E-01
  3.6175211770E+03  1.0016009724E+09  1.5250700914E-05  1.3847282821E-01
  3.6183277592E+03  7.9287933307E+08  1.2070712729E-05  1.3849948803E-01
  3.6191347012E+03  1.0664418544E+09  1.6233426346E-05  1.3852798606E-01
  3.6199420031E+03  1.1912336243E+09  1.8130327053E-05  1.3856174182E-01
  3.6207496653E+03  1.8517936859E+09  2.8179226672E-05  1.3861082766E-01
  3.6215576880E+03  1.8593569319E+09  2.8289929812E-05  1.3866864986E-01
  3.6223660714E+03  1.6642536637E+09  2.5317514446E-05  1.3872086941E-01
  3.6231748158E+03  2.5110360546E+09  3.8193286860E-05  1.3878746346E-01
  3.6239839214E+03  2.7875685332E+09  4.2392313807E-05  1.3887240147E-01
  3.6247933884E+03  2.1900314321E+09  3.3300183512E-05  1.3894897444E-01
  3.6256032172E+03  3.3288462710E+09  5.0608970149E-05  1.3903411621E-01
  3.6264134078E+03  3.5283508246E+09  5.3633272642E-05  1.3914137315E-01
  3.6272239607E+03  3.6777577053E+09  5.5895953969E-05  1.3925199266E-01
  3.6280348759E+03  4.5986313654E+09  6.9880990701E-05  1.3938368663E-01
  3.6288461538E+03  4.6441900055E+09  7.0562344382E-05  1.3952827610E-01
  3.6296577947E+03  5.3293374968E+09  8.0960721399E-05  1.3968179006E-01
  3.6304697987E+03  7.0030555828E+09  1.0637111631E-04  1.3987112090E-01
  3.6312821660E+03  1.0120414776E+10  1.5369653051E-04  1.4013155653E-01
  3.6320948970E+03  1.6226540218E+10  2.4639369553E-04  1.4059982947E-01
  3.6329079919E+03  1.1197685977E+09  1.7000929989E-05  1.4088044033E-01
  3.6337214510E+03  6.1766125119E+08  9.3758242719E-06  1.4090614107E-01
  3.6345352744E+03  7.0927288102E+08  1.0765051369E-05  1.4092757809E-01
  3.6353494624E+03  5.6597668282E+08  8.5892104864E-06  1.4094753655E-01
  3.6361640152E+03  7.0548606221E+08  1.0704243332E-05  1.4096746768E-01
  3.6369789332E+03  5.9191449311E+08  8.9796346176E-06  1.4098830868E-01
  3.6377942165E+03  3.8461949279E+08  5.8343239980E-06  1.4100368527E-01
  3.6386098655E+03  1.6775233294E+08  2.5442173264E-06  1.4101043383E-01
  3.6394258802E+03  6.9097773008E+08  1.0478106636E-05  1.4102429951E-01
  3.6402422611E+03  2.0360873233E+08  3.0872259027E-06  1.4103912787E-01
  3.6410590083E+03  1.5873200791E+08  2.4062309281E-06  1.4104483434E-01
  3.6418761221E+03  1.1545823673E+09  1.7500279607E-05  1.4107003722E-01
  3.6426936027E+03  4.3215451209E+08  6.5493711994E-06  1.4109604273E-01
  3.6435114504E+03  6.7266616995E+08  1.0192678937E-05  1.4111140675E-01
  3.6443296654E+03  1.5171012539E+09  2.2984787977E-05  1.4114977885E-01
  3.6451482480E+03  9.0682708327E+08  1.3736800840E-05  1.4118869019E-01
  3.6459671984E+03  1.2571410293E+09  1.9040431209E-05  1.4122112688E-01
  3.6467865169E+03  1.9655072504E+09  2.9764942586E-05  1.4127490909E-01
  3.6476062036E+03  1.5837647290E+09  2.3980173572E-05  1.4133213411E-01
  3.6484262590E+03  1.4372619181E+09  2.1758943100E-05  1.4137990465E-01
  3.6492466832E+03  2.8617646677E+09  4.3318634763E-05  1.4145338836E-01
  3.6500674764E+03  2.2094178808E+09  3.3438758680E-05  1.4153521900E-01
  3.6508886389E+03  2.4453372194E+09  3.7003956994E-05  1.4160626652E-01
  3.6517101710E+03  3.8063211298E+09  5.7590691057E-05  1.4171015416E-01
  3.6525320729E+03  3.3281771998E+09  5.0348571021E-05  1.4182433161E-01
  3.6533543449E+03  3.8518282722E+09  5.8261865026E-05  1.4193468633E-01
  3.6541769872E+03  6.0140229776E+09  9.0953932306E-05  1.4208539702E-01
  3.6550000000E+03  1.0367605050E+10  1.5677098564E-04  1.4237908653E-01
  3.6558233836E+03  1.9666798707E+09  2.9736648704E-05  1.4258145276E-01
  3.6566471384E+03  1.3863093790E+09  2.0957143424E-05  1.4263667708E-01
  3.6574712644E+03  6.2764799440E+07  9.4875606824E-07  1.4265520071E-01
  3.6582957619E+03  4.4030805504E+08  6.6543345953E-06  1.4266009694E-01
  3.6591206313E+03  1.4575297906E+09  2.2024492238E-05  1.4269679261E-01
  3.6599458728E+03  1.7950795520E+07  2.7118779451E-07  1.4272093814E-01
  3.6607714866E+03  5.3408964142E+08  8.0684516748E-06  1.4272650107E-01
  3.6615974729E+03  1.5252013105E+09  2.3037456716E-05  1.4276455107E-01
  3.6624238321E+03  5.3704384582E+08  8.1100464593E-06  1.4279903263E-01
  3.6632505643E+03  3.0817490936E+08  4.6532083252E-06  1.4280892819E-01
  3.6640776699E+03  1.4269745216E+09  2.1544791089E-05  1.4284161978E-01
  3.6649051491E+03  6.5707349316E+08  9.9188775627E-06  1.4287604612E-01
  3.6657330020E+03  8.9446540325E+08  1.3499912388E-05  1.4289941804E-01
  3.6665612291E+03  1.1730248563E+09  1.7702564664E-05  1.4293503650E-01
  3.6673898305E+03  4.7415825503E+08  7.1548992975E-06  1.4296101153E-01
  3.6682188065E+03  1.0110447061E+09  1.5253414744E-05  1.4298282170E-01
  3.6690481574E+03  1.7611385851E+09  2.6566607301E-05  1.4303303290E-01
  3.6698778833E+03  3.0456696160E+08  4.5935244805E-06  1.4306606137E-01
  3.6707079846E+03  1.0721588772E+09  1.6168506017E-05  1.4308538368E-01
  3.6715384615E+03  1.6494053955E+09  2.4871130053E-05  1.4313386366E-01
  3.6723693143E+03  3.9050572989E+08  5.8874812580E-06  1.4316634017E-01
  3.6732005432E+03  1.1225214931E+09  1.6921517775E-05  1.4318752591E-01
  3.6740321485E+03  2.1580556808E+09  3.2527443584E-05  1.4324767371E-01
  3.6748641304E+03  3.6996774842E+08  5.5752277842E-06  1.4328755253E-01
  3.6756964892E+03  1.9147511297E+09  2.8851061762E-05  1.4332252462E-01
  3.6765292252E+03  1.3936080765E+09  2.0996903137E-05  1.4337779765E-01
  3.6773623385E+03  1.3328921810E+09  2.0077727637E-05  1.4342159745E-01
  3.6781958296E+03  2.2184993077E+09  3.3412901105E-05  1.4348489973E-01
  3.6790296985E+03  7.7886741896E+08  1.1729637485E-05  1.4353386291E-01
  3.6798639456E+03  1.0924783284E+09  1.6449681072E-05  1.4355952549E-01
  3.6806985711E+03  2.9655182698E+09  4.4646557629E-05  1.4363708001E-01
  3.6815335753E+03  2.7052559052E+08  4.0724325502E-06  1.4368933396E-01
  3.6823689585E+03  2.0350114228E+09  3.0629269242E-05  1.4372200969E-01
  3.6832047208E+03  2.6621026050E+09  4.0062554169E-05  1.4380626048E-01
  3.6840408627E+03  1.0248275970E+08  1.5420558946E-06  1.4383669480E-01
  3.6848773842E+03  2.8070204375E+09  4.2232884729E-05  1.4388095590E-01
  3.6857142857E+03  2.2301961445E+09  3.3549313664E-05  1.4396671139E-01
  3.6865515675E+03  1.6145819531E+09  2.4283998940E-05  1.4402644877E-01
  3.6873892297E+03  1.8674286905E+09  2.8085434952E-05  1.4408150281E-01
  3.6882272727E+03  2.1341039164E+09  3.2091238945E-05  1.4414313464E-01
  3.6890656967E+03  3.5270770397E+09  5.3028672889E-05  1.4424721203E-01
  3.6899045020E+03  2.5844544948E+08  3.8853224647E-06  1.4430741428E-01
  3.6907436889E+03  2.4162869367E+09  3.6320514794E-05  1.4434433159E-01
  3.6915832575E+03  3.8649620233E+09  5.8088085561E-05  1.4445569647E-01
  3.6924232082E+03  1.7248840278E+09  2.5918081942E-05  1.4454382892E-01
  3.6932635412E+03  4.9577296073E+09  7.4487783532E-05  1.4465569981E-01
  3.6941042568E+03  1.5433972597E+08  2.3187495534E-06  1.4473866444E-01
  3.6949453552E+03  3.3252436410E+09  4.9946384856E-05  1.4478763873E-01
  3.6957868367E+03  4.0364668464E+09  6.0623885256E-05  1.4490708863E-01
  3.6966287016E+03  2.8565426687E+08  4.2896395544E-06  1.4495269624E-01
  3.6974709501E+03  5.6150428693E+09  8.4308084680E-05  1.4504788326E-01
  3.6983135825E+03  2.3328417388E+09  3.5023675741E-05  1.4518519460E-01
  3.6991565990E+03  1.6301449993E+09  2.4469065454E-05  1.4524961467E-01
  3.7000000000E+03  6.7336546843E+09  1.0106458531E-04  1.4541670889E-01
  3.7008437856E+03  3.6676311889E+08  5.5041878633E-06  1.4553606225E-01
  3.7016879562E+03  2.6551988510E+09  3.9841377268E-05  1.4557133858E-01
  3.7025325120E+03  6.5436100941E+09  9.8177473862E-05  1.4574450382E-01
  3.7033774532E+03  1.8209560039E+09  2.7316263969E-05  1.4588087701E-01
  3.7042227802E+03  5.6482184058E+09  8.4716243225E-05  1.4599926977E-01
  3.7050684932E+03  3.3885977337E+09  5.0821048043E-05  1.4615219275E-01
  3.7059145924E+03  3.1310723383E+09  4.6950605844E-05  1.4625856035E-01
  3.7067610781E+03  7.0949732917E+09  1.0637552897E-04  1.4644958493E-01
  3.7076079507E+03  2.1910316996E+09  3.2846983899E-05  1.4660664122E-01
  3.7084552102E+03  2.1786711408E+09  3.2657298966E-05  1.4667803014E-01
  3.7093028571E+03  9.0988100746E+09  1.3637101543E-04  1.4689834009E-01
  3.7101508916E+03  2.8037290177E+09  4.2014220567E-05  1.4709716508E-01
  3.7109993140E+03  6.6575362005E+09  9.9749404256E-05  1.4724730064E-01
  3.7118481244E+03  3.7633222271E+09  5.6384021797E-05  1.4742386673E-01
  3.7126973233E+03  3.2169224054E+09  4.8189398192E-05  1.4753816574E-01
  3.7135469108E+03  1.0243942749E+10  1.5343199945E-04  1.4779847229E-01
  3.7143968872E+03  2.6912192013E+09  4.0302738103E-05  1.4801662418E-01
  3.7152472527E+03  5.2259078497E+09  7.8251156740E-05  1.4813382132E-01
  3.7160980078E+03  6.9042696684E+09  1.0337529628E-04  1.4834502605E-01
  3.7169491525E+03  4.1133261986E+09  6.1579557048E-05  1.4852232857E-01