 TITLE="parade results"
 VARIABLES="wavelength [A]"
 "emission coefficient [W/m3/str/m]"
 "absorption coefficient [1/m]"
 "conditional distribution [-]"
 ZONE I=          350 , F=POINT
  1.1100000000E+03  2.3555000994E+12  2.2715116889E-01  0.0000000000E+00
  1.1116393443E+03  2.3955434943E+12  2.2815907895E-01  3.9350592702E-06
  1.1132786885E+03  2.4361360984E+12  2.2916996598E-01  7.9369059607E-06
  1.1149180328E+03  2.4772834036E+12  2.3018383439E-01  1.2006454402E-05
  1.1165573770E+03  2.5189909314E+12  2.3120068855E-01  1.6144628043E-05
  1.1181967213E+03  2.5612642323E+12  2.3222053286E-01  2.0352359507E-05
  1.1198360656E+03  2.6041088861E+12  2.3324337169E-01  2.4630590634E-05
  1.1214754098E+03  2.6475305013E+12  2.3426920944E-01  2.8980272530E-05
  1.1231147541E+03  2.6915347157E+12  2.3529805050E-01  3.3402365619E-05
  1.1247540984E+03  2.7361271955E+12  2.3632989924E-01  3.7897839686E-05
  1.1263934426E+03  2.7813136360E+12  2.3736476007E-01  4.2467673926E-05
  1.1280327869E+03  2.8270997608E+12  2.3840263735E-01  4.7112856994E-05
  1.1296721311E+03  2.8734913222E+12  2.3944353549E-01  5.1834387046E-05
  1.1313114754E+03  2.9204941006E+12  2.4048745887E-01  5.6633271796E-05
  1.1329508197E+03  2.9681139049E+12  2.4153441187E-01  6.1510614533E-05
  1.1340557908E+03  9.9560933968E+13  8.0318220944E+00  1.1875044200E-04
  1.1341273724E+03  1.8058326672E+15  1.4571584784E+02  1.8703857805E-04
  1.1341388197E+03  1.8010419219E+16  1.4534163300E+03  2.9945682173E-04
  1.1341532866E+03  2.0287248408E+17  1.6371704029E+04  1.9139499922E-03
  1.1341585791E+03  6.4557721163E+17  5.2097784076E+04  4.2227658722E-03
  1.1341635585E+03  1.0129042919E+18  8.1740920791E+04  8.0684299289E-03
  1.1341659742E+03  1.2214627158E+18  9.8571495428E+04  1.0795501476E-02
  1.1341680254E+03  1.3090267797E+18  1.0563787738E+05  1.3418050983E-02
  1.1341700000E+03  1.3354630019E+18  1.0777126882E+05  1.6056301051E-02
  1.1341719373E+03  1.3095936220E+18  1.0568362067E+05  1.8645348059E-02
  1.1341739988E+03  1.2229071779E+18  9.8688061569E+04  2.1337084831E-02
  1.1341764215E+03  1.0143173953E+18  8.1854955337E+04  2.3966960244E-02
  1.1341814209E+03  6.7464105805E+17  5.4443220316E+04  2.7935307589E-02
  1.1341852303E+03  3.1984310105E+17  2.5811176861E+04  2.9447287531E-02
  1.1341928525E+03  5.3969665573E+16  4.3553029453E+03  3.0991821859E-02
  1.1342126259E+03  2.3075768318E+15  1.8618599967E+02  3.1512332331E-02
  1.1342842092E+03  8.8561095915E+14  7.1384765455E+01  3.1611318843E-02
  1.1343766862E+03  3.1061817208E+15  2.5021504661E+02  3.1780013773E-02
  1.1343889453E+03  3.6144678631E+16  2.9113946910E+03  3.2019460611E-02
  1.1344032888E+03  4.0882678998E+17  3.2930192237E+04  3.5244146401E-02
  1.1344085644E+03  1.2930199594E+18  1.0415018318E+05  3.9783677584E-02
  1.1344135494E+03  2.0286619825E+18  1.6340467667E+05  4.8266002157E-02
  1.1344159685E+03  2.4471742439E+18  1.9711500217E+05  5.3736482004E-02
  1.1344180226E+03  2.6229342313E+18  2.1127211751E+05  5.8998424973E-02
  1.1344200000E+03  2.6759909656E+18  2.1554573121E+05  6.4292324471E-02
  1.1344219401E+03  2.6240599046E+18  2.1136278793E+05  6.9487446160E-02
  1.1344240045E+03  2.4500499878E+18  1.9734663694E+05  7.4779903253E-02
  1.1344264306E+03  2.0314608949E+18  1.6363012233E+05  8.0273178660E-02
  1.1344314356E+03  1.3503731053E+18  1.0876986257E+05  8.8297398248E-02
  1.1344352498E+03  6.3962242776E+17  5.1520306042E+04  9.2536681311E-02
  1.1344428817E+03  1.0555050857E+17  8.5018772972E+03  9.5245378827E-02
  1.1344633249E+03  4.2120654378E+15  3.3926524960E+02  9.6296659818E-02
  1.1345343557E+03  8.5807210524E+14  6.9102079117E+01  9.6460741243E-02
  1.1345901639E+03  3.1905490533E+14  2.5661140810E+01  9.6492958544E-02
  1.1349371012E+03  1.6130565978E+15  1.2943292042E+02  9.6831633899E-02
  1.1349488447E+03  4.7748891299E+16  3.8309504519E+03  9.7000145699E-02
  1.1349632768E+03  5.4061564410E+17  4.3374129243E+04  1.0129034457E-01
  1.1349685667E+03  1.7170414356E+18  1.3775990912E+05  1.0687638463E-01
  1.1349735512E+03  2.6941198767E+18  2.1615186549E+05  1.1809800810E-01
  1.1349759696E+03  3.2492686359E+18  2.6069199194E+05  1.2509743077E-01
  1.1349780232E+03  3.4823699542E+18  2.7939393807E+05  1.3208185029E-01
  1.1349800000E+03  3.5527396030E+18  2.8503976363E+05  1.3910830442E-01
  1.1349819395E+03  3.4838669570E+18  2.7951404406E+05  1.4600369453E-01
  1.1349840034E+03  3.2530897806E+18  2.6099856609E+05  1.5302861230E-01
  1.1349864288E+03  2.6978416665E+18  2.1645046829E+05  1.6023403769E-01
  1.1349914333E+03  1.7939173163E+18  1.4392773598E+05  1.7097875527E-01
  1.1349952468E+03  8.5004814469E+17  6.8200191669E+04  1.7638968369E-01
  1.1350028770E+03  1.4202704305E+17  1.1394968060E+04  1.7963838210E-01
  1.1350228978E+03  5.5102039712E+15  4.4208886606E+02  1.8104038277E-01
  1.1350943333E+03  2.0645970461E+14  1.6564165696E+01  1.8124294326E-01
  1.1362295082E+03  3.0652279674E+12  2.4363742428E-01  1.8134720188E-01
  1.1378688525E+03  3.1147339835E+12  2.4469349247E-01  1.8135232045E-01
  1.1395081967E+03  3.1648805412E+12  2.4575260782E-01  1.8135752156E-01
  1.1411475410E+03  3.2156735891E+12  2.4681477473E-01  1.8136280628E-01
  1.1427868852E+03  3.2671191030E+12  2.4787999758E-01  1.8136817568E-01
  1.1444262295E+03  3.3192230865E+12  2.4894828076E-01  1.8137363084E-01
  1.1460655738E+03  3.3719915701E+12  2.5001962866E-01  1.8137917286E-01
  1.1477049180E+03  3.4254306118E+12  2.5109404565E-01  1.8138480285E-01
  1.1491726955E+03  3.4738508967E+12  2.5205862642E-01  1.8138991918E-01
  1.1493442623E+03  3.4795462966E+12  2.5217153612E-01  1.8139052193E-01
  1.1509836066E+03  3.5343447362E+12  2.5325210447E-01  1.8139633121E-01
  1.1526229508E+03  3.5898320693E+12  2.5433575507E-01  1.8140223193E-01
  1.1542622951E+03  1.0897155961E+09  7.6340309795E-05  1.8140471077E-01
  1.1559016393E+03  1.1067168979E+09  7.6666036113E-05  1.8140471259E-01
  1.1575409836E+03  1.1239296469E+09  7.6992687583E-05  1.8140471443E-01
  1.1575463194E+03  1.8656530155E+12  1.2244312258E-01  1.8140471946E-01
  1.1591803279E+03  2.7940793284E+12  1.8337346546E-01  1.8140820608E-01
  1.1601218734E+03  4.5183018369E+12  2.9653098405E-01  1.8141160185E-01
  1.1608196721E+03  6.5826704503E+12  4.3201185319E-01  1.8141543681E-01
  1.1611389724E+03  8.1981330897E+12  5.3803191761E-01  1.8141782132E-01
  1.1611489650E+03  1.1441781699E+13  7.5090734347E-01  1.8141792052E-01
  1.1624590164E+03  2.7249756731E+13  1.7883581084E+00  1.8144353024E-01
  1.1630172352E+03  8.0728537940E+13  5.2980791159E+00  1.8146932676E-01
  1.1633674606E+03  2.0118243061E+14  1.3203251433E+01  1.8150491178E-01
  1.1635153251E+03  3.9760329841E+14  2.6093980947E+01  1.8154806254E-01
  1.1635968972E+03  5.7780605175E+14  3.7920333719E+01  1.8158808737E-01
  1.1635994669E+03  6.5079760985E+14  4.2710624034E+01  1.8158968248E-01
  1.1636019890E+03  6.6005640489E+14  4.3318260191E+01  1.8159135277E-01
  1.1636044651E+03  6.6932094590E+14  4.3926273431E+01  1.8159301550E-01
  1.1636068965E+03  7.7238621340E+14  5.0690239279E+01  1.8159481634E-01
  1.1636958924E+03  1.1423789374E+15  7.4972001953E+01  1.8167627357E-01
  1.1637601511E+03  1.7946804872E+15  1.1778102320E+02  1.8177028932E-01
  1.1638165410E+03  2.5088210017E+15  1.6464889786E+02  1.8189432921E-01
  1.1638700000E+03  2.9085639434E+15  1.9088372179E+02  1.8204065157E-01
  1.1638718684E+03  2.9743122800E+15  1.9519886869E+02  1.8204620485E-01
  1.1638737362E+03  2.9776326559E+15  1.9541680446E+02  1.8205181962E-01
  1.1638756037E+03  2.9805331749E+15  1.9560719406E+02  1.8205744129E-01
  1.1638800000E+03  2.9489976946E+15  1.9353776772E+02  1.8207061127E-01
  1.1639348027E+03  2.5940894131E+15  1.7024593411E+02  1.8222558173E-01
  1.1639924765E+03  1.8708848311E+15  1.2278281607E+02  1.8235476423E-01
  1.1640578158E+03  1.2815149280E+15  8.4102618474E+01  1.8245850954E-01
  1.1640983607E+03  9.4517474033E+14  6.2028141445E+01  1.8250353000E-01
  1.1641431028E+03  7.7916902923E+14  5.1132364496E+01  1.8254250989E-01
  1.1641455208E+03  7.2630112304E+14  4.7662138009E+01  1.8254434912E-01
  1.1641479910E+03  7.1714247052E+14  4.7060938583E+01  1.8254619972E-01
  1.1641505170E+03  7.0800338796E+14  4.6461014471E+01  1.8254802012E-01
  1.1641531035E+03  6.9926995219E+14  4.5887710676E+01  1.8254986115E-01
  1.1641552967E+03  6.9133596812E+14  4.5366878754E+01  1.8255139917E-01
  1.1641575235E+03  6.8389043382E+14  4.4878091265E+01  1.8255294758E-01
  1.1641597847E+03  6.7643527923E+14  4.4388676712E+01  1.8255450162E-01
  1.1641620810E+03  6.4708918809E+14  4.2461988039E+01  1.8255602526E-01
  1.1641940000E+03  5.8596950416E+14  3.8447585977E+01  1.8257579817E-01
  1.1642323227E+03  5.6770659971E+14  3.7236158845E+01  1.8259813600E-01
  1.1642726785E+03  1.0227951310E+15  6.7010570188E+01  1.8263056548E-01
  1.1642952081E+03  8.6983756241E+15  5.6938563553E+02  1.8274122095E-01
  1.1643013777E+03  2.3097088309E+16  1.5118066757E+03  1.8284255343E-01
  1.1643046066E+03  2.9821386330E+16  1.9519239905E+03  1.8293058631E-01
  1.1643073522E+03  3.3135515499E+16  2.1688394486E+03  1.8301357991E-01
  1.1643100000E+03  3.4105782673E+16  2.2323446829E+03  1.8310353491E-01
  1.1643125918E+03  3.3153052316E+16  2.1699860411E+03  1.8319160827E-01
  1.1643153490E+03  2.9872930993E+16  1.9552951496E+03  1.8328260083E-01
  1.1643185867E+03  2.3130404004E+16  1.5139829318E+03  1.8337231170E-01
  1.1643247915E+03  1.1751045663E+16  7.6918061671E+02  1.8347763754E-01
  1.1643356217E+03  2.3535406185E+15  1.5409322414E+02  1.8354837937E-01
  1.1643594414E+03  5.3973939715E+14  3.5371949280E+01  1.8358081819E-01
  1.1644003359E+03  2.9864727374E+14  1.9585817798E+01  1.8359765109E-01
  1.1644579151E+03  1.9890722980E+14  1.3049577144E+01  1.8361134298E-01
  1.1645850592E+03  1.2639186214E+14  8.2935444356E+00  1.8363193153E-01
  1.1648163819E+03  6.8299035099E+13  4.4820545192E+00  1.8365349113E-01
  1.1652732717E+03  3.3995373532E+13  2.2310660928E+00  1.8367470726E-01
  1.1657377049E+03  1.7403232621E+13  1.1421474037E+00  1.8368641707E-01
  1.1666010276E+03  1.0406071824E+13  6.8293349134E-01  1.8369661823E-01
  1.1666110350E+03  1.0454286314E+13  6.8211572421E-01  1.8369672369E-01
  1.1672303671E+03  3.6463045731E+13  2.3470867331E+00  1.8371140475E-01
  1.1672765200E+03  1.0205045218E+14  6.5504474397E+00  1.8371425267E-01
  1.1673011119E+03  1.7713868704E+14  1.1363675968E+01  1.8371767646E-01
  1.1673770492E+03  4.9936653694E+14  3.2019464557E+01  1.8374363180E-01
  1.1674037455E+03  1.6977105224E+15  1.0883770365E+02  1.8377264404E-01
  1.1674228085E+03  7.5911860416E+15  4.8663183283E+02  1.8386210964E-01
  1.1674307565E+03  2.9670423046E+16  1.9019949137E+03  1.8400233487E-01
  1.1674351112E+03  6.5166440114E+16  4.1774246787E+03  1.8420370172E-01
  1.1674413754E+03  1.0787336329E+17  6.9151009726E+03  1.8478103698E-01
  1.1674446059E+03  1.3972186023E+17  8.9567108239E+03  1.8517667517E-01
  1.1674473514E+03  1.5531791997E+17  9.9564775984E+03  1.8558593160E-01
  1.1674500000E+03  1.5989979683E+17  1.0250193332E+04  1.8600775830E-01
  1.1674525947E+03  1.5542692236E+17  9.9634650436E+03  1.8642113743E-01
  1.1674553550E+03  1.3999929380E+17  8.9744953238E+03  1.8683314546E-01
  1.1674585970E+03  1.0809313510E+17  6.9291891006E+03  1.8721504211E-01
  1.1674648888E+03  6.5230467048E+16  4.1815289234E+03  1.8776642942E-01
  1.1674692405E+03  2.9691814113E+16  1.9033659871E+03  1.8800775653E-01
  1.1674771772E+03  7.6093686606E+15  4.8779714705E+02  1.8814347476E-01
  1.1674961987E+03  9.9616123572E+14  6.3865226667E+01  1.8822298467E-01
  1.1675988881E+03  1.7815170575E+14  1.1427412375E+01  1.8827688077E-01
  1.1676652111E+03  8.1947033399E+13  5.2600988741E+00  1.8828559648E-01
  1.1676696287E+03  3.3573143277E+13  2.1578502453E+00  1.8828585265E-01
  1.1682708913E+03  3.0463278041E+13  1.9471314807E+00  1.8830530588E-01
  1.1683195510E+03  7.7418918611E+13  4.9338320693E+00  1.8830772212E-01
  1.1683489477E+03  1.3378461600E+14  8.5220313207E+00  1.8831073616E-01
  1.1683908630E+03  3.4736457651E+14  2.2121749536E+01  1.8832092564E-01
  1.1683959791E+03  1.1297589500E+15  7.1945964056E+01  1.8832424794E-01
  1.1683998422E+03  1.9826490791E+15  1.2626034524E+02  1.8832997972E-01
  1.1684027966E+03  3.0257238340E+15  1.9268638516E+02  1.8833739245E-01
  1.1684050891E+03  4.6452805215E+15  2.9582456297E+02  1.8834627784E-01
  1.1684113197E+03  7.1964237924E+15  4.5828900453E+02  1.8838299710E-01
  1.1684145718E+03  9.2946600237E+15  5.9191090310E+02  1.8841009358E-01
  1.1684173358E+03  1.0331770819E+16  6.5795701815E+02  1.8843750116E-01
  1.1684200000E+03  1.0642317364E+16  6.7773315512E+02  1.8846604905E-01
  1.1684226237E+03  1.0354068387E+16  6.5937605211E+02  1.8849388225E-01
  1.1684254133E+03  9.3397000417E+15  5.9477720626E+02  1.8852303247E-01
  1.1684286870E+03  7.2601946591E+15  4.6234674611E+02  1.8855135147E-01
  1.1684349109E+03  1.6745003554E+15  1.0662540723E+02  1.8857988017E-01
  1.1684923673E+03  1.1909176421E+15  7.5788176379E+01  1.8866306174E-01
  1.1685123877E+03  6.4063389731E+15  4.0764599298E+02  1.8873757978E-01
  1.1685206254E+03  2.6170939728E+16  1.6652770541E+03  1.8885065708E-01
  1.1685250863E+03  5.7865522330E+16  3.6820189749E+03  1.8904812698E-01
  1.1685313600E+03  9.6396442900E+16  6.1337605184E+03  1.8953188384E-01
  1.1685345962E+03  1.2488348219E+17  7.9464049312E+03  1.8989077357E-01
  1.1685373466E+03  1.3883900663E+17  8.8344018472E+03  1.9025724511E-01
  1.1685400000E+03  1.4293830750E+17  9.0952423596E+03  1.9063499996E-01
  1.1685425993E+03  1.3893530880E+17  8.8405295202E+03  1.9100517821E-01
  1.1685453645E+03  1.2512965055E+17  7.9620685770E+03  1.9137410177E-01
  1.1685486123E+03  9.6589495953E+16  6.1460442888E+03  1.9173764196E-01
  1.1685549137E+03  6.1918547298E+16  3.9399145203E+03  1.9230298415E-01
  1.1685569855E+03  4.0475777133E+16  2.5755003485E+03  1.9241016538E-01
  1.1685597257E+03  2.6876520052E+16  1.7101728237E+03  1.9250341248E-01
  1.1685635169E+03  1.4454933557E+16  9.1978105501E+02  1.9256537718E-01
  1.1685691087E+03  6.2376918295E+15  3.9691382297E+02  1.9263461889E-01
  1.1685766265E+03  2.6123855427E+15  1.6623371068E+02  1.9266498652E-01
  1.1685893246E+03  1.2125052131E+15  7.7158523847E+01  1.9268724980E-01
  1.1686152412E+03  4.2515988390E+14  2.7059159034E+01  1.9270792074E-01
  1.1686891370E+03  1.4310976175E+14  9.1119348097E+00  1.9272776102E-01
  1.1687482344E+03  7.6621740853E+13  4.8811049275E+00  1.9273518166E-01
  1.1687604587E+03  4.1409640522E+13  2.6403163164E+00  1.9273590931E-01
  1.1690163934E+03  1.1466881091E+13  7.3444146080E-01  1.9274239645E-01
  1.1695732926E+03  2.4710585966E+12  1.6127030972E-01  1.9274631816E-01
  1.1696025649E+03  5.1493881494E+12  3.3008905948E-01  1.9274643087E-01
  1.1696783293E+03  5.5132749976E+14  3.4820261543E+01  1.9276773248E-01
  1.1696834222E+03  3.9147327854E+15  2.4721374748E+02  1.9278020505E-01
  1.1696858891E+03  4.7078386227E+15  2.9729707421E+02  1.9279021886E-01
  1.1696879838E+03  5.0401481746E+15  3.1828187335E+02  1.9280053571E-01
  1.1696900000E+03  5.1405090571E+15  3.2461949500E+02  1.9281076551E-01
  1.1696919784E+03  5.0423020976E+15  3.1841788339E+02  1.9282094373E-01
  1.1696940835E+03  4.7133021667E+15  2.9764207425E+02  1.9283132001E-01
  1.1696965575E+03  3.9200230909E+15  2.4754779779E+02  1.9284187008E-01
  1.1697016707E+03  1.3591988849E+15  8.5835936871E+01  1.9285342254E-01
  1.1697279106E+03  2.3322159038E+13  1.4774610262E+00  1.9287023520E-01
  1.1698026098E+03  3.6046973795E+12  2.3226433464E-01  1.9287137170E-01
  1.1698067074E+03  1.9695566606E+12  1.2866815537E-01  1.9287138326E-01
  1.1706557377E+03  2.8528291372E+09  1.7962593552E-04  1.9287203619E-01
  1.1710405585E+03  1.2739559037E+09  7.9717924685E-05  1.9287203697E-01
  1.1722950820E+03  1.2886700024E+09  7.9974398942E-05  1.9287203818E-01
  1.1734977242E+03  5.0897563722E+12  3.0738938590E-01  1.9287425552E-01
  1.1739344262E+03  9.0785320459E+12  5.4826081178E-01  1.9287735438E-01
  1.1745515746E+03  1.5296311708E+13  9.2375866923E-01  1.9288435086E-01
  1.1750777532E+03  2.9774111532E+13  1.7958400066E+00  1.9289633275E-01
  1.1751335417E+03  3.7317606088E+13  2.2510963832E+00  1.9289824483E-01
  1.1751852286E+03  4.0293368374E+13  2.4307005751E+00  1.9290027916E-01
  1.1752331729E+03  4.3397077847E+13  2.6180334101E+00  1.9290229242E-01
  1.1752777437E+03  5.2202549533E+13  3.1495456202E+00  1.9290444798E-01
  1.1755737705E+03  9.2235869996E+13  5.5663931348E+00  1.9292449334E-01
  1.1759913152E+03  2.5492878349E+14  1.5390224453E+01  1.9299773174E-01
  1.1761570272E+03  6.9702381034E+14  4.2088014745E+01  1.9306515006E-01
  1.1762284180E+03  1.3640295356E+15  8.2369595841E+01  1.9313518541E-01
  1.1762677753E+03  2.2209374825E+15  1.3412037591E+02  1.9320515874E-01
  1.1763056476E+03  3.4573697685E+15  2.0879199923E+02  1.9330974727E-01
  1.1763326407E+03  5.1331640291E+15  3.0999822454E+02  1.9342543826E-01
  1.1763559408E+03  7.0892525215E+15  4.2813239518E+02  1.9356982430E-01
  1.1763774879E+03  8.6787343896E+15  5.2412602518E+02  1.9373817154E-01
  1.1763828961E+03  9.3776587520E+15  5.6633609441E+02  1.9378840893E-01
  1.1763882649E+03  9.6679765761E+15  5.8386915768E+02  1.9384018846E-01
  1.1763936055E+03  9.8668007537E+15  5.9587658373E+02  1.9389274151E-01
  1.1764000000E+03  9.9234905042E+15  5.9929986474E+02  1.9395673070E-01
  1.1764162369E+03  9.4364459733E+15  5.6988484164E+02  1.9411651862E-01
  1.1764327092E+03  8.2151477782E+15  4.9612542777E+02  1.9426377601E-01
  1.1764497422E+03  6.7197995455E+15  4.0581492737E+02  1.9439196649E-01
  1.1764677744E+03  5.4153760620E+15  3.2703477528E+02  1.9450244327E-01
  1.1764811535E+03  4.4819679833E+15  2.7066135569E+02  1.9456906987E-01
  1.1764956536E+03  3.7756333217E+15  2.2800128227E+02  1.9462932615E-01
  1.1765120351E+03  3.1911934798E+15  1.9270188779E+02  1.9468665552E-01
  1.1765322247E+03  2.7846725346E+15  1.6814657673E+02  1.9474728865E-01
  1.1765459022E+03  2.5627968190E+15  1.5474216487E+02  1.9478411057E-01
  1.1765615491E+03  2.4420728294E+15  1.4744608304E+02  1.9482361932E-01
  1.1765793576E+03  2.3583306068E+15  1.4238316545E+02  1.9486687667E-01
  1.1766000000E+03  2.2138942623E+15  1.3365727072E+02  1.9491476565E-01
  1.1766243079E+03  1.8905170685E+15  1.1413055034E+02  1.9496530344E-01
  1.1766524123E+03  1.4389948965E+15  8.6869172974E+01  1.9501257499E-01
  1.1766862173E+03  1.0131088676E+15  6.1155616068E+01  1.9505416013E-01
  1.1767322256E+03  5.6063045339E+14  3.3833514670E+01  1.9509018343E-01
  1.1769341931E+03  2.6937829067E+14  1.6236369970E+01  1.9514958353E-01
  1.1772131148E+03  2.1803325868E+14  1.3106416896E+01  1.9521349139E-01
  1.1773147816E+03  3.1416629971E+14  1.8846007934E+01  1.9524024987E-01
  1.1774986971E+03  6.5978953089E+14  3.9534826774E+01  1.9533075185E-01
  1.1775677488E+03  1.4581308432E+15  8.7337717717E+01  1.9540019432E-01
  1.1776129919E+03  2.6140681425E+15  1.5655667785E+02  1.9548991713E-01
  1.1776447781E+03  4.1782608928E+15  2.5022366791E+02  1.9559764255E-01
  1.1776725885E+03  5.8814491282E+15  3.5221431972E+02  1.9574092118E-01
  1.1777000000E+03  6.7513382910E+15  4.0430501680E+02  1.9591876691E-01
  1.1777055312E+03  6.7764508466E+15  4.0580853611E+02  1.9595657201E-01
  1.1777110747E+03  6.6522656055E+15  3.9837184869E+02  1.9599410828E-01
  1.1777166423E+03  6.4541649141E+15  3.8650890701E+02  1.9603135734E-01
  1.1777222468E+03  5.9724838643E+15  3.5766431524E+02  1.9606636093E-01
  1.1777438956E+03  4.8759740185E+15  2.9200192995E+02  1.9618527371E-01
  1.1777672531E+03  3.5261630320E+15  2.1117107998E+02  1.9628381618E-01
  1.1777942636E+03  2.3706588832E+15  1.4197576852E+02  1.9636307322E-01
  1.1778322512E+03  1.6232493836E+15  9.7218283390E+01  1.9643845898E-01
  1.1778472609E+03  1.2633863407E+15  7.5668301739E+01  1.9646014032E-01
  1.1778660392E+03  1.0359394536E+15  6.2047819731E+01  1.9648174186E-01
  1.1778901723E+03  8.2070027320E+14  4.9158285441E+01  1.9650424412E-01
  1.1779222563E+03  5.9749483604E+14  3.5791506319E+01  1.9652703333E-01
  1.1779897352E+03  3.7120825673E+14  2.2239801652E+01  1.9655955870E-01
  1.1781111825E+03  1.8678092854E+14  1.1194072415E+01  1.9659189964E-01
  1.1783798528E+03  7.8976504371E+13  4.7360983407E+00  1.9662260058E-01
  1.1788524590E+03  3.8786343437E+13  2.3275392227E+00  1.9665081089E-01
  1.1790225121E+03  2.3767140204E+13  1.4269509336E+00  1.9665610866E-01
  1.1796259254E+03  1.3700670385E+13  8.2299899092E-01  1.9666736264E-01
  1.1804918033E+03  5.0612515475E+12  3.0326749353E-01  1.9667515677E-01
  1.1809214856E+03  2.8810323555E+12  1.7252225084E-01  1.9667685904E-01
  1.1821311475E+03  1.4087818991E+09  8.2004369176E-05  1.9667821991E-01
  1.1831974373E+03  1.4223190402E+09  8.2226471638E-05  1.9667822143E-01
  1.1837704918E+03  1.4296368120E+09  8.2346001329E-05  1.9667822226E-01
  1.1854098361E+03  1.4507359282E+09  8.2688580913E-05  1.9667822464E-01
  1.1870491803E+03  1.4720812402E+09  8.3032109238E-05  1.9667822706E-01
  1.1886885246E+03  1.4936747474E+09  8.3376587616E-05  1.9667822952E-01
  1.1903278689E+03  1.5155184564E+09  8.3722017356E-05  1.9667823201E-01
  1.1919672131E+03  1.5376143803E+09  8.4068399769E-05  1.9667823454E-01
  1.1936065574E+03  1.5599645395E+09  8.4415736164E-05  1.9667823711E-01
  1.1952459016E+03  1.5825709608E+09  8.4764027853E-05  1.9667823971E-01
  1.1968852459E+03  1.6054356778E+09  8.5113276144E-05  1.9667824235E-01
  1.1985245902E+03  3.7615954073E+12  1.9619118340E-01  1.9668135929E-01
  1.1994202950E+03  1.9092707192E+15  9.9580375138E+01  1.9754709970E-01
  1.1994621801E+03  1.9848964606E+16  1.0352472914E+03  1.9784406667E-01
  1.1995199652E+03  1.9330130642E+17  1.0081868645E+04  2.0406710140E-01
  1.1995318843E+03  2.6677299891E+18  1.3913875611E+05  2.0854418207E-01
  1.1995370295E+03  7.1424710609E+18  3.7252440953E+05  2.3357998362E-01
  1.1995426237E+03  1.1389503526E+19  5.9403363903E+05  2.8839043920E-01
  1.1995453892E+03  1.3981201253E+19  7.2920683852E+05  3.2383966507E-01
  1.1995477378E+03  1.5175885909E+19  7.9151709390E+05  3.5843787615E-01
  1.1995500000E+03  1.5515458857E+19  8.0922794086E+05  3.9351670735E-01
  1.1995522185E+03  1.5182498049E+19  7.9186195824E+05  4.2792590610E-01
  1.1995545792E+03  1.4003726474E+19  7.3038166923E+05  4.6148744965E-01
  1.1995573533E+03  1.1406249257E+19  5.9490703333E+05  4.9920288231E-01
  1.1995629705E+03  7.3245470508E+18  3.8202080792E+05  5.5298305520E-01
  1.1995672948E+03  3.2893686164E+18  1.7156108735E+05  5.7685690697E-01
  1.1995759446E+03  5.1666682680E+17  2.6947397188E+04  5.9156129840E-01
  1.1996019033E+03  3.9444844273E+16  2.0572822491E+03  5.9837123532E-01
  1.1996797050E+03  4.1458687925E+15  2.1613353199E+02  6.0001692500E-01
  1.2001328817E+03  4.1453901343E+15  2.1542276552E+02  6.0191532842E-01
  1.2001639344E+03  2.9919189118E+16  1.5538869167E+03  6.0244977382E-01
  1.2001899506E+03  2.0098611296E+17  1.0438557818E+04  6.0548490599E-01
  1.2002018436E+03  1.7205869461E+18  8.9361797823E+04  6.0956277556E-01
  1.2002069904E+03  4.5998935218E+18  2.3890383636E+05  6.2621583832E-01
  1.2002125994E+03  7.3416936269E+18  3.8130422569E+05  6.5992803215E-01
  1.2002153740E+03  9.0184413375E+18  4.6838917627E+05  6.8512450941E-01
  1.2002177303E+03  9.7929310311E+18  5.0861371102E+05  7.0751979131E-01
  1.2002200000E+03  1.0012774379E+19  5.2003167610E+05  7.3023180747E-01
  1.2002222258E+03  9.7972029661E+18  5.0883558130E+05  7.5250991557E-01
  1.2002245942E+03  9.0330149648E+18  4.6914608325E+05  7.7504253178E-01
  1.2002273775E+03  7.3525506377E+18  3.8186810273E+05  7.9808407177E-01
  1.2002330096E+03  4.7161914243E+18  2.4494397750E+05  8.3414167424E-01
  1.2002373469E+03  2.1140554276E+18  1.0979729731E+05  8.5121827818E-01
  1.2002460228E+03  3.3248973969E+17  1.7268432152E+04  8.6022119514E-01
  1.2002720595E+03  2.6005174294E+16  1.3505923866E+03  8.6462829430E-01
  1.2003500957E+03  3.6912367239E+15  1.9164537810E+02  8.6573339472E-01
  1.2006205029E+03  3.6998444688E+15  1.9171137141E+02  8.6674317438E-01
  1.2006799237E+03  6.3109462696E+16  3.2683426019E+03  8.6874892236E-01
  1.2006919241E+03  9.0170744624E+17  4.6697224583E+04  8.7030274864E-01
  1.2006970778E+03  2.4209271794E+18  1.2537380485E+05  8.7922542974E-01
  1.2007026552E+03  3.8536357377E+18  1.9957018877E+05  8.9685393487E-01
  1.2007054089E+03  4.7242377863E+18  2.4465648586E+05  9.0804429294E-01
  1.2007077475E+03  5.1239796168E+18  2.6535811276E+05  9.2001191984E-01
  1.2007100000E+03  5.2378972965E+18  2.7125762339E+05  9.3180418920E-01
  1.2007122091E+03  5.1262035843E+18  2.6547328554E+05  9.4337170301E-01
  1.2007145596E+03  4.7317976413E+18  2.4504798992E+05  9.5507913824E-01
  1.2007173219E+03  3.8592268027E+18  1.9985973274E+05  9.6646980060E-01
  1.2007229222E+03  2.4837082056E+18  1.2862507167E+05  9.8425695898E-01
  1.2007272304E+03  1.1196684845E+18  5.7984872613E+04  9.9187455474E-01
  1.2007358479E+03  1.7587858469E+17  9.1083573643E+03  9.9686934603E-01
  1.2007617096E+03  1.3200688758E+16  6.8367162288E+02  9.9916550456E-01
  1.2008392219E+03  7.0707787005E+14  3.6618496653E+01  9.9969809089E-01
  1.2018032787E+03  1.6756000397E+09  8.6166773737E-05  9.9999998562E-01
  1.2034426230E+03  1.6995184088E+09  8.6519861541E-05  9.9999998842E-01
  1.2050819672E+03  1.7237053408E+09  8.6873912499E-05  9.9999999125E-01
  1.2067213115E+03  1.7481629087E+09  8.7228927920E-05  9.9999999413E-01
  1.2083606557E+03  1.7728931915E+09  8.7584909114E-05  9.9999999704E-01
  1.2100000000E+03  1.7978982748E+09  8.7941857391E-05  1.0000000000E+00
