 TITLE="parade results"
 VARIABLES="wavl","emis","absco"
 ZONE I=        4000, F=POINT
      800.000        8.444734E+14     2885.07
      800.180        8.476418E+14     2887.02
      800.360        8.508217E+14     2888.97
      800.541        8.540130E+14     2890.92
      800.721        8.572170E+14     2892.88
      800.901        8.604324E+14     2894.83
      801.082        8.636595E+14     2896.79
      801.262        8.668993E+14     2898.75
      801.443        8.701508E+14     2900.71
      801.624        8.734141E+14     2902.67
      801.805        8.766904E+14     2904.64
      801.986        8.799784E+14     2906.61
      802.167        8.832782E+14     2908.57
      802.348        8.865911E+14     2910.55
      802.529        8.899159E+14     2912.52
      802.710        8.932526E+14     2914.49
      802.891        8.966028E+14     2916.47
      803.073        8.999647E+14     2918.44
      803.254        9.033390E+14     2920.42
      803.436        9.067265E+14     2922.40
      803.617        9.101261E+14     2924.38
      803.799        9.135381E+14     2926.37
      803.981        9.169636E+14     2928.35
      804.163        9.204014E+14     2930.34
      804.345        9.238516E+14     2932.33
      804.527        9.273153E+14     2934.32
      804.709        9.307916E+14     2936.32
      804.891        9.342803E+14     2938.31
      805.073        9.377828E+14     2940.31
      805.256        9.412978E+14     2942.30
      805.438        9.448257E+14     2944.31
      805.621        9.483674E+14     2946.31
      805.803        9.519219E+14     2948.31
      805.986        9.554890E+14     2950.32
      806.169        9.590704E+14     2952.33
      806.352        9.626644E+14     2954.33
      806.535        9.662726E+14     2956.35
      806.718        9.698941E+14     2958.36
      806.901        9.735285E+14     2960.38
      807.084        9.771771E+14     2962.40
      807.267        9.808389E+14     2964.41
      807.451        9.845136E+14     2966.43
      807.634        9.882031E+14     2968.45
      807.818        9.919056E+14     2970.48
      808.001        9.956217E+14     2972.50
      808.185        9.993521E+14     2974.53
      808.369        1.003096E+15     2976.56
      808.553        1.006855E+15     2978.59
      808.737        1.010627E+15     2980.63
      808.921        1.014413E+15     2982.66
      809.105        1.018214E+15     2984.70
      809.289        1.022028E+15     2986.74
      809.473        1.025856E+15     2988.78
      809.658        1.029699E+15     2990.82
      809.842        1.033556E+15     2992.87
      810.027        1.037427E+15     2994.92
      810.211        1.041313E+15     2996.96
      810.396        1.045213E+15     2999.01
      810.581        1.049128E+15     3001.06
      810.766        1.053057E+15     3003.12
      810.951        1.057001E+15     3005.17
      811.136        1.060959E+15     3007.23
      811.321        1.064933E+15     3009.29
      811.506        1.068921E+15     3011.35
      811.691        1.072924E+15     3013.42
      811.877        1.076941E+15     3015.48
      812.062        1.080974E+15     3017.55
      812.248        1.085021E+15     3019.62
      812.433        1.089085E+15     3021.69
      812.619        1.093163E+15     3023.76
      812.805        1.097255E+15     3025.84
      812.991        1.101364E+15     3027.91
      813.177        1.105487E+15     3029.99
      813.363        1.109627E+15     3032.07
      813.549        1.113781E+15     3034.16
      813.735        1.117950E+15     3036.24
      813.922        1.122135E+15     3038.33
      814.108        1.126336E+15     3040.41
      814.295        1.130553E+15     3042.50
      814.481        1.134785E+15     3044.59
      814.668        1.139032E+15     3046.69
      814.855        1.143296E+15     3048.79
      815.041        1.147575E+15     3050.88
      815.228        1.151871E+15     3052.98
      815.415        1.156182E+15     3055.08
      815.602        1.160508E+15     3057.19
      815.790        1.164852E+15     3059.29
      815.977        1.169211E+15     3061.40
      816.164        1.173587E+15     3063.51
      816.352        1.177979E+15     3065.62
      816.539        1.182386E+15     3067.73
      816.727        1.186811E+15     3069.85
      816.915        1.191252E+15     3071.96
      817.102        1.195709E+15     3074.08
      817.290        1.200183E+15     3076.20
      817.478        1.204673E+15     3078.33
      817.666        1.209181E+15     3080.45
      817.854        1.213704E+15     3082.58
      818.043        1.218245E+15     3084.71
      818.231        1.222803E+15     3086.84
      818.419        1.227378E+15     3088.97
      818.608        1.231969E+15     3091.10
      818.796        1.236577E+15     3093.24
      818.985        1.241203E+15     3095.38
      819.174        1.245846E+15     3097.52
      819.362        1.250506E+15     3099.66
      819.551        1.255183E+15     3101.81
      819.740        1.259879E+15     3103.96
      819.930        1.264591E+15     3106.10
      820.119        1.269320E+15     3108.26
      820.308        1.274068E+15     3110.41
      820.497        1.278832E+15     3112.56
      820.687        1.283615E+15     3114.72
      820.876        1.288415E+15     3116.87
      821.066        1.293234E+15     3119.04
      821.256        1.298070E+15     3121.20
      821.445        1.302923E+15     3123.36
      821.635        1.307795E+15     3125.53
      821.825        1.312684E+15     3127.70
      822.015        1.317593E+15     3129.87
      822.205        1.322519E+15     3132.04
      822.396        1.327464E+15     3134.21
      822.586        1.332427E+15     3136.39
      822.776        1.337407E+15     3138.57
      822.967        1.342407E+15     3140.75
      823.157        1.347425E+15     3142.93
      823.348        1.352462E+15     3145.12
      823.539        1.357517E+15     3147.30
      823.730        1.362592E+15     3149.49
      823.920        1.367685E+15     3151.68
      824.112        1.372798E+15     3153.87
      824.303        1.377929E+15     3156.07
      824.494        1.383080E+15     3158.26
      824.685        1.388249E+15     3160.46
      824.876        1.393437E+15     3162.66
      825.068        1.398644E+15     3164.87
      825.259        1.403870E+15     3167.07
      825.451        1.409117E+15     3169.28
      825.643        1.414383E+15     3171.49
      825.835        1.419668E+15     3173.70
      826.027        1.424973E+15     3175.91
      826.219        1.430298E+15     3178.13
      826.411        1.435642E+15     3180.34
      826.603        1.441007E+15     3182.56
      826.795        1.446391E+15     3184.78
      826.987        1.451795E+15     3187.01
      827.180        1.457219E+15     3189.23
      827.372        1.462663E+15     3191.46
      827.565        1.468127E+15     3193.69
      827.758        1.473611E+15     3195.92
      827.951        1.479116E+15     3198.15
      828.143        1.484641E+15     3200.39
      828.336        1.490187E+15     3202.63
      828.529        1.495753E+15     3204.87
      828.723        1.501340E+15     3207.11
      828.916        1.506947E+15     3209.35
      829.109        1.512576E+15     3211.60
      829.303        1.518225E+15     3213.85
      829.496        1.523896E+15     3216.10
      829.690        1.529587E+15     3218.35
      829.884        1.535300E+15     3220.61
      830.077        1.541033E+15     3222.87
      830.271        1.546789E+15     3225.13
      830.465        1.552565E+15     3227.39
      830.659        1.558363E+15     3229.65
      830.853        1.564182E+15     3231.91
      831.048        1.570023E+15     3234.18
      831.242        1.575885E+15     3236.45
      831.437        1.581770E+15     3238.72
      831.631        1.587675E+15     3240.99
      831.826        1.593602E+15     3243.27
      832.020        1.599551E+15     3245.55
      832.215        1.605522E+15     3247.83
      832.410        1.611516E+15     3250.11
      832.605        1.617531E+15     3252.40
      832.800        1.623569E+15     3254.68
      832.995        1.629628E+15     3256.97
      833.190        1.635711E+15     3259.26
      833.386        1.641815E+15     3261.55
      833.581        1.647943E+15     3263.85
      833.777        1.654093E+15     3266.15
      833.972        1.660267E+15     3268.45
      834.168        1.666462E+15     3270.75
      834.364        1.672681E+15     3273.05
      834.560        1.678922E+15     3275.35
      834.756        1.685188E+15     3277.67
      834.952        1.691475E+15     3279.97
      835.148        1.697787E+15     3282.28
      835.344        1.704124E+15     3284.60
      835.540        1.710482E+15     3286.92
      835.737        1.716865E+15     3289.24
      835.933        1.723271E+15     3291.56
      836.130        1.729701E+15     3293.88
      836.327        1.736154E+15     3296.21
      836.524        1.742632E+15     3298.53
      836.721        1.749133E+15     3300.86
      836.918        1.755659E+15     3303.20
      837.115        1.762208E+15     3305.53
      837.312        1.768783E+15     3307.87
      837.509        1.775380E+15     3310.21
      837.706        1.782003E+15     3312.55
      837.904        1.788649E+15     3314.89
      838.102        1.795322E+15     3317.24
      838.299        1.802017E+15     3319.58
      838.497        1.808738E+15     3321.93
      838.695        1.815483E+15     3324.29
      838.893        1.822254E+15     3326.64
      839.091        1.829049E+15     3328.99
      839.289        1.835870E+15     3331.35
      839.487        1.842715E+15     3333.71
      839.685        1.849586E+15     3336.07
      839.884        1.856484E+15     3338.44
      840.082        1.863407E+15     3340.81
      840.281        1.870355E+15     3343.18
      840.479        1.877329E+15     3345.55
      840.678        1.884329E+15     3347.92
      840.877        1.891354E+15     3350.30
      841.076        1.898406E+15     3352.68
      841.275        1.905482E+15     3355.06
      841.474        1.912586E+15     3357.44
      841.673        1.919715E+15     3359.83
      841.873        1.926871E+15     3362.22
      842.072        1.934055E+15     3364.61
      842.272        1.941264E+15     3367.00
      842.471        1.948501E+15     3369.40
      842.671        1.955763E+15     3371.79
      842.871        1.963053E+15     3374.19
      843.071        1.970369E+15     3376.59
      843.271        1.977713E+15     3379.00
      843.471        1.985083E+15     3381.40
      843.671        1.992481E+15     3383.81
      843.871        1.999905E+15     3386.22
      844.072        2.007358E+15     3388.63
      844.272        2.014839E+15     3391.05
      844.473        2.022346E+15     3393.47
      844.674        2.029882E+15     3395.89
      844.874        2.037445E+15     3398.31
      845.075        2.045037E+15     3400.73
      845.276        2.052655E+15     3403.16
      845.477        2.060303E+15     3405.59
      845.678        2.067980E+15     3408.02
      845.880        2.075684E+15     3410.45
      846.081        2.083417E+15     3412.89
      846.282        2.091178E+15     3415.33
      846.484        2.098968E+15     3417.76
      846.685        2.106786E+15     3420.21
      846.887        2.114634E+15     3422.65
      847.089        2.122511E+15     3425.10
      847.291        2.130417E+15     3427.55
      847.493        2.138352E+15     3430.00
      847.695        2.146316E+15     3432.46
      847.897        2.154309E+15     3434.91
      848.099        2.162332E+15     3437.37
      848.302        2.170384E+15     3439.83
      848.504        2.178468E+15     3442.30
      848.707        2.186580E+15     3444.76
      848.910        2.194723E+15     3447.23
      849.112        2.202894E+15     3449.71
      849.315        2.211097E+15     3452.18
      849.518        2.219331E+15     3454.66
      849.721        2.227594E+15     3457.13
      849.925        2.235888E+15     3459.61
      850.128        2.244212E+15     3462.09
      850.331        2.252567E+15     3464.58
      850.535        2.260955E+15     3467.07
      850.738        2.269371E+15     3469.56
      850.942        2.277820E+15     3472.05
      851.146        2.286298E+15     3474.55
      851.349        2.294809E+15     3477.04
      851.553        2.303350E+15     3479.54
      851.757        2.311923E+15     3482.05
      851.962        2.320529E+15     3484.55
      852.166        2.329165E+15     3487.05
      852.370        2.337834E+15     3489.56
      852.575        2.346536E+15     3492.08
      852.779        2.355268E+15     3494.59
      852.984        2.364034E+15     3497.10
      853.189        2.372831E+15     3499.63
      853.393        2.381661E+15     3502.15
      853.598        2.390524E+15     3504.67
      853.803        2.399419E+15     3507.20
      854.008        2.408348E+15     3509.72
      854.214        2.417307E+15     3512.25
      854.419        2.426301E+15     3514.79
      854.624        2.435329E+15     3517.32
      854.830        2.444389E+15     3519.86
      855.036        2.453484E+15     3522.40
      855.241        2.462610E+15     3524.94
      855.447        2.471771E+15     3527.49
      855.653        2.480966E+15     3530.04
      855.859        2.490194E+15     3532.59
      856.065        2.499456E+15     3535.14
      856.271        2.508755E+15     3537.70
      856.478        2.518085E+15     3540.26
      856.684        2.527452E+15     3542.82
      856.891        2.536853E+15     3545.38
      857.097        2.546288E+15     3547.95
      857.304        2.555758E+15     3550.51
      857.511        2.565262E+15     3553.08
      857.718        2.574801E+15     3555.65
      857.925        2.584377E+15     3558.23
      858.132        2.593986E+15     3560.81
      858.339        2.603632E+15     3563.39
      858.546        2.613314E+15     3565.97
      858.754        2.623030E+15     3568.55
      858.961        2.632784E+15     3571.14
      859.169        2.642574E+15     3573.73
      859.377        2.652398E+15     3576.32
      859.584        2.662259E+15     3578.92
      859.792        2.672155E+15     3581.52
      860.000        2.682089E+15     3584.12
      860.208        2.692060E+15     3586.72
      860.417        2.702065E+15     3589.32
      860.625        2.712110E+15     3591.93
      860.833        2.722191E+15     3594.55
      861.042        2.732309E+15     3597.15
      861.250        2.742464E+15     3599.77
      861.459        2.752658E+15     3602.39
      861.668        2.762888E+15     3605.01
      861.877        2.773155E+15     3607.63
      862.086        2.783462E+15     3610.26
      862.295        2.793805E+15     3612.88
      862.504        2.804187E+15     3615.52
      862.714        2.814609E+15     3618.15
      862.923        2.825067E+15     3620.78
      863.133        2.835564E+15     3623.42
      863.342        2.846101E+15     3626.06
      863.552        2.856675E+15     3628.71
      863.762        2.867288E+15     3631.35
      863.972        2.877942E+15     3634.00
      864.182        2.888633E+15     3636.65
      864.392        2.899365E+15     3639.31
      864.602        2.910136E+15     3641.96
      864.813        2.920946E+15     3644.62
      865.023        2.931796E+15     3647.28
      865.234        2.223961E+13     27.5848
      865.444        2.232221E+13     27.6050
      865.655        2.240512E+13     27.6251
      865.866        2.248834E+13     27.6453
      866.077        2.257185E+13     27.6655
      866.288        2.265568E+13     27.6858
      866.499        2.273983E+13     27.7060
      866.710        2.282426E+13     27.7262
      866.922        2.290902E+13     27.7466
      867.133        2.299410E+13     27.7669
      867.345        2.307949E+13     27.7872
      867.556        2.316519E+13     27.8075
      867.768        2.325120E+13     27.8279
      867.980        2.333754E+13     27.8483
      868.192        2.342418E+13     27.8687
      868.404        2.351115E+13     27.8891
      868.616        2.359845E+13     27.9096
      868.829        2.368604E+13     27.9301
      869.041        2.377397E+13     27.9505
      869.254        2.386223E+13     27.9711
      869.466        2.395083E+13     27.9916
      869.679        2.403973E+13     28.0121
      869.892        2.412896E+13     28.0327
      870.105        2.421853E+13     28.0533
      870.318        2.430842E+13     28.0739
      870.531        2.439864E+13     28.0945
      870.744        2.448920E+13     28.1152
      870.957        2.458007E+13     28.1359
      871.171        2.467129E+13     28.1566
      871.384        2.476285E+13     28.1773
      871.598        2.485475E+13     28.1980
      871.812        2.494697E+13     28.2187
      872.026        2.503955E+13     28.2395
      872.240        2.513246E+13     28.2603
      872.454        2.522572E+13     28.2811
      872.668        2.531932E+13     28.3020
      872.882        2.541326E+13     28.3228
      873.097        2.550755E+13     28.3437
      873.311        2.560217E+13     28.3646
      873.526        2.569715E+13     28.3855
      873.741        2.579249E+13     28.4065
      873.955        2.588818E+13     28.4274
      874.170        2.598420E+13     28.4484
      874.385        2.608058E+13     28.4694
      874.600        2.617733E+13     28.4904
      874.816        2.627444E+13     28.5114
      875.031        2.637188E+13     28.5325
      875.247        2.646969E+13     28.5536
      875.462        2.656787E+13     28.5747
      875.678        2.666639E+13     28.5958
      875.893        2.676528E+13     28.6169
      876.109        2.686453E+13     28.6381
      876.325        2.696416E+13     28.6593
      876.541        2.706414E+13     28.6805
      876.758        2.716449E+13     28.7017
      876.974        2.726521E+13     28.7230
      877.190        2.736632E+13     28.7442
      877.407        2.746777E+13     28.7655
      877.623        2.756960E+13     28.7868
      877.840        2.767182E+13     28.8082
      878.057        2.777441E+13     28.8295
      878.274        2.787737E+13     28.8509
      878.491        2.798070E+13     28.8723
      878.708        2.808442E+13     28.8937
      878.925        2.818854E+13     28.9151
      879.143        2.829301E+13     28.9366
      879.360        2.839787E+13     28.9581
      879.578        2.850312E+13     28.9796
      879.796        2.860877E+13     29.0011
      880.013        2.871482E+13     29.0227
      880.231        2.882123E+13     29.0442
      880.449        2.892804E+13     29.0658
      880.667        2.903524E+13     29.0874
      880.886        2.914285E+13     29.1091
      881.104        2.925083E+13     29.1307
      881.323        2.935922E+13     29.1524
      881.541        2.946800E+13     29.1741
      881.760        2.957720E+13     29.1958
      881.979        2.968680E+13     29.2175
      882.197        2.979678E+13     29.2393
      882.416        2.990717E+13     29.2611
      882.636        3.001797E+13     29.2829
      882.855        3.012919E+13     29.3047
      883.074        3.024079E+13     29.3266
      883.294        3.035281E+13     29.3484
      883.513        3.046524E+13     29.3703
      883.733        3.057809E+13     29.3922
      883.953        3.069137E+13     29.4142
      884.172        3.080503E+13     29.4361
      884.392        3.091912E+13     29.4581
      884.612        3.103364E+13     29.4801
      884.833        3.114858E+13     29.5021
      885.053        3.126395E+13     29.5241
      885.273        3.137972E+13     29.5462
      885.494        3.149591E+13     29.5683
      885.715        3.161254E+13     29.5904
      885.935        3.172961E+13     29.6125
      886.156        3.184712E+13     29.6347
      886.377        3.196502E+13     29.6568
      886.598        3.208337E+13     29.6791
      886.819        3.220215E+13     29.7013
      887.041        3.232138E+13     29.7235
      887.262        3.244105E+13     29.7458
      887.484        3.256113E+13     29.7680
      887.705        3.268166E+13     29.7904
      887.927        3.280264E+13     29.8127
      888.149        3.292407E+13     29.8351
      888.371        3.304595E+13     29.8574
      888.593        3.316825E+13     29.8798
      888.815        3.329101E+13     29.9022
      889.037        3.341421E+13     29.9247
      889.260        3.353788E+13     29.9471
      889.482        3.366201E+13     29.9696
      889.705        3.378660E+13     29.9921
      889.928        3.391161E+13     30.0147
      890.151        3.403710E+13     30.0372
      890.373        3.416304E+13     30.0598
      890.597        3.428946E+13     30.0824
      890.820        3.441634E+13     30.1050
      891.043        3.454370E+13     30.1277
      891.266        3.467149E+13     30.1503
      891.490        3.479976E+13     30.1730
      891.714        3.492851E+13     30.1957
      891.937        3.505773E+13     30.2185
      892.161        3.518743E+13     30.2412
      892.385        3.531761E+13     30.2640
      892.609        3.544824E+13     30.2868
      892.833        3.557935E+13     30.3096
      893.058        3.571095E+13     30.3325
      893.282        3.584304E+13     30.3554
      893.507        3.597561E+13     30.3783
      893.731        3.610868E+13     30.4012
      893.956        3.624224E+13     30.4242
      894.181        3.637625E+13     30.4471
      894.406        3.651076E+13     30.4701
      894.631        3.664578E+13     30.4931
      894.856        3.678129E+13     30.5161
      895.082        3.691731E+13     30.5392
      895.307        3.705383E+13     30.5623
      895.533        3.719084E+13     30.5854
      895.758        3.732834E+13     30.6085
      895.984        3.746634E+13     30.6316
      896.210        3.760485E+13     30.6548
      896.436        3.774388E+13     30.6780
      896.662        3.788342E+13     30.7013
      896.888        3.802347E+13     30.7245
      897.115        3.816404E+13     30.7477
      897.341        3.830509E+13     30.7711
      897.568        3.844667E+13     30.7944
      897.795        3.858877E+13     30.8177
      898.021        3.873139E+13     30.8411
      898.248        3.887454E+13     30.8645
      898.475        3.901822E+13     30.8879
      898.703        3.916243E+13     30.9113
      898.930        3.930717E+13     30.9348
      899.157        3.945240E+13     30.9582
      899.385        3.959818E+13     30.9817
      899.612        3.974449E+13     31.0053
      899.840        3.989134E+13     31.0288
      900.068        4.003873E+13     31.0524
      900.296        4.018667E+13     31.0760
      900.524        4.033515E+13     31.0996
      900.752        4.048419E+13     31.1233
      900.980        4.063377E+13     31.1470
      901.209        4.078389E+13     31.1706
      901.437        4.093454E+13     31.1944
      901.666        4.108573E+13     31.2181
      901.895        4.123750E+13     31.2419
      902.124        4.138981E+13     31.2657
      902.353        4.154269E+13     31.2895
      902.582        4.169613E+13     31.3133
      902.811        4.185013E+13     31.3372
      903.040        4.200470E+13     31.3611
      903.270        4.215985E+13     31.3850
      903.500        4.231556E+13     31.4089
      903.729        4.247180E+13     31.4329
      903.959        4.262863E+13     31.4569
      904.189        4.278602E+13     31.4809
      904.419        4.294400E+13     31.5049
      904.649        4.310256E+13     31.5290
      904.879        4.326170E+13     31.5531
      905.110        4.342142E+13     31.5772
      905.340        4.358174E+13     31.6013
      905.571        4.374264E+13     31.6255
      905.802        4.390413E+13     31.6496
      906.033        4.406622E+13     31.6738
      906.264        4.422890E+13     31.6981
      906.495        4.439218E+13     31.7224
      906.726        4.455602E+13     31.7466
      906.957        4.472046E+13     31.7709
      907.189        4.488550E+13     31.7952
      907.420        4.505115E+13     31.8196
      907.652        4.521741E+13     31.8440
      907.884        4.538427E+13     31.8684
      908.116        4.555175E+13     31.8928
      908.348        4.571986E+13     31.9173
      908.580        4.588857E+13     31.9418
      908.812        4.605790E+13     31.9663
      909.045        4.622785E+13     31.9908
      909.277        4.639842E+13     32.0154
      909.510        4.656962E+13     32.0399
      909.743        4.674145E+13     32.0646
      909.976        4.691391E+13     32.0892
      910.209        4.708701E+13     32.1139
      910.442        4.726073E+13     32.1385
      910.675        4.743509E+13     32.1632
      910.908        4.761004E+13     32.1880
      911.142        4.778563E+13     32.2127
      911.375        4.796188E+13     32.2375
      911.609        4.813876E+13     32.2623
      911.843        4.831629E+13     32.2872
      912.077        4.849448E+13     32.3120
      912.311        4.867331E+13     32.3369
      912.545        4.885280E+13     32.3618
      912.780        4.903294E+13     32.3867
      913.014        4.921375E+13     32.4117
      913.249        4.939522E+13     32.4367
      913.483        4.957734E+13     32.4617
      913.718        4.976014E+13     32.4867
      913.953        4.995317E+13     32.5179
      914.188        5.014062E+13     32.5451
      914.423        5.036199E+13     32.5934
      914.658        5.056886E+13     32.6322
      914.894        5.079533E+13     32.6830
      915.129        5.112726E+13     32.8002
      915.365        5.170782E+13     33.0757
      915.601        7.141110E+15     4555.11
      915.837        5.504347E+13     35.0040
      916.073        6.272398E+13     39.7814
      916.309        5.326143E+13     33.6777
      916.545        5.661556E+13     35.6910
      916.782        6.817849E+13     42.8712
      917.018        5.356633E+13     33.5804
      917.255        5.301729E+13     33.1387
      917.491        5.300160E+13     33.0322
      917.728        5.308696E+13     32.9888
      917.965        5.324415E+13     32.9904
      918.202        5.341824E+13     33.0022
      918.440        5.355959E+13     32.9930
      918.677        5.375693E+13     33.0186
      918.915        5.395499E+13     33.0442
      919.152        5.415376E+13     33.0698
      919.390        5.435326E+13     33.0955
      919.628        5.455349E+13     33.1212
      919.866        5.475444E+13     33.1469
      920.104        5.495614E+13     33.1726
      920.342        5.515856E+13     33.1984
      920.580        5.536172E+13     33.2242
      920.819        5.556562E+13     33.2500
      921.057        5.577027E+13     33.2759
      921.296        5.597566E+13     33.3018
      921.535        5.618178E+13     33.3277
      921.774        5.638868E+13     33.3536
      922.013        5.659631E+13     33.3796
      922.252        5.680470E+13     33.4055
      922.492        5.701385E+13     33.4316
      922.731        5.722376E+13     33.4576
      922.971        5.743444E+13     33.4837
      923.210        5.764587E+13     33.5097
      923.450        5.785808E+13     33.5359
      923.690        5.807112E+13     33.5620
      923.930        5.828493E+13     33.5882
      924.170        5.849950E+13     33.6144
      924.411        5.871487E+13     33.6406
      924.651        5.893102E+13     33.6669
      924.892        5.914795E+13     33.6932
      925.133        5.936567E+13     33.7195
      925.373        5.958418E+13     33.7458
      925.614        5.980347E+13     33.7722
      925.855        6.002358E+13     33.7986
      926.097        6.024448E+13     33.8250
      926.338        6.046618E+13     33.8515
      926.579        6.068867E+13     33.8780
      926.821        6.091199E+13     33.9045
      927.063        6.113611E+13     33.9310
      927.305        6.136103E+13     33.9575
      927.546        6.158679E+13     33.9842
      927.789        6.181335E+13     34.0107
      928.031        6.204079E+13     34.0374
      928.273        6.226906E+13     34.0641
      928.516        6.249815E+13     34.0908
      928.758        6.272807E+13     34.1175
      929.001        6.295883E+13     34.1443
      929.244        6.319043E+13     34.1711
      929.487        6.342286E+13     34.1978
      929.730        6.365613E+13     34.2247
      929.973        6.389025E+13     34.2516
      930.216        6.412521E+13     34.2784
      930.460        6.436103E+13     34.3054
      930.704        6.459769E+13     34.3323
      930.947        6.483527E+13     34.3593
      931.191        6.507372E+13     34.3863
      931.435        6.531303E+13     34.4134
      931.679        6.555319E+13     34.4405
      931.924        6.579423E+13     34.4675
      932.168        6.603614E+13     34.4947
      932.413        6.627893E+13     34.5218
      932.657        6.652258E+13     34.5490
      932.902        6.676712E+13     34.5762
      933.147        6.701255E+13     34.6035
      933.392        6.725892E+13     34.6307
      933.637        6.750619E+13     34.6580
      933.882        6.775433E+13     34.6853
      934.128        6.800338E+13     34.7127
      934.373        6.825334E+13     34.7401
      934.619        6.850419E+13     34.7675
      934.865        6.875594E+13     34.7949
      935.111        6.900861E+13     34.8224
      935.357        6.926218E+13     34.8498
      935.603        6.951673E+13     34.8774
      935.849        6.977221E+13     34.9049
      936.096        7.002859E+13     34.9325
      936.342        7.028591E+13     34.9601
      936.589        7.054415E+13     34.9878
      936.836        7.080334E+13     35.0155